mesh: [     1,     1,     1 ]
nqpoint: 1      
natom:   12     
phonon:
- q-position: [    0.0000000,    0.0000000,    0.0000000 ]
  weight: 1    
  band:
  - # 1
    frequency:    -0.0032602801
    eigenvector:
    - # atom 1
      - [ -0.00108600545927,  0.00000000000000 ]
      - [  0.06158375272476,  0.00000000000000 ]
      - [ -0.12441223479665,  0.00000000000000 ]
    - # atom 2
      - [ -0.00130181094548,  0.00000000000000 ]
      - [  0.06656334427274,  0.00000000000000 ]
      - [ -0.13417195998081,  0.00000000000000 ]
    - # atom 3
      - [ -0.00028381042228,  0.00000000000000 ]
      - [  0.01785770208969,  0.00000000000000 ]
      - [ -0.03603208999305,  0.00000000000000 ]
    - # atom 4
      - [ -0.00034934900457,  0.00000000000000 ]
      - [  0.01781692096107,  0.00000000000000 ]
      - [ -0.03605297362029,  0.00000000000000 ]
    - # atom 5
      - [ -0.00031428341419,  0.00000000000000 ]
      - [  0.01783245828284,  0.00000000000000 ]
      - [ -0.03608069835475,  0.00000000000000 ]
    - # atom 6
      - [ -0.00034032471178,  0.00000000000000 ]
      - [  0.01786493309919,  0.00000000000000 ]
      - [ -0.03597907165623,  0.00000000000000 ]
    - # atom 7
      - [ -0.00033018638550,  0.00000000000000 ]
      - [  0.01785106511515,  0.00000000000000 ]
      - [ -0.03597117237005,  0.00000000000000 ]
    - # atom 8
      - [ -0.00039742448979,  0.00000000000000 ]
      - [  0.01785961858492,  0.00000000000000 ]
      - [ -0.03598495982559,  0.00000000000000 ]
    - # atom 9
      - [ -0.00579575059615,  0.00000000000000 ]
      - [  0.25585557486976,  0.00000000000000 ]
      - [ -0.51841509932386,  0.00000000000000 ]
    - # atom 10
      - [ -0.00340877388594,  0.00000000000000 ]
      - [  0.20032575119889,  0.00000000000000 ]
      - [ -0.40545631152815,  0.00000000000000 ]
    - # atom 11
      - [ -0.00342044491216,  0.00000000000000 ]
      - [  0.20025630810446,  0.00000000000000 ]
      - [ -0.40456265657025,  0.00000000000000 ]
    - # atom 12
      - [ -0.00447781424973,  0.00000000000000 ]
      - [  0.20016943013171,  0.00000000000000 ]
      - [ -0.40735546364585,  0.00000000000000 ]
  - # 2
    frequency:    -0.0018317614
    eigenvector:
    - # atom 1
      - [ -0.09543448794276,  0.00000000000000 ]
      - [  0.09047517399230,  0.00000000000000 ]
      - [  0.04538460368825,  0.00000000000000 ]
    - # atom 2
      - [ -0.10323755428782,  0.00000000000000 ]
      - [  0.09780120444078,  0.00000000000000 ]
      - [  0.04936198883457,  0.00000000000000 ]
    - # atom 3
      - [ -0.02757341092524,  0.00000000000000 ]
      - [  0.02622938495907,  0.00000000000000 ]
      - [  0.01315769913808,  0.00000000000000 ]
    - # atom 4
      - [ -0.02769676118239,  0.00000000000000 ]
      - [  0.02618454388091,  0.00000000000000 ]
      - [  0.01312118755813,  0.00000000000000 ]
    - # atom 5
      - [ -0.02764519751748,  0.00000000000000 ]
      - [  0.02619304699772,  0.00000000000000 ]
      - [  0.01309064954530,  0.00000000000000 ]
    - # atom 6
      - [ -0.02767511016195,  0.00000000000000 ]
      - [  0.02624139200230,  0.00000000000000 ]
      - [  0.01326977562072,  0.00000000000000 ]
    - # atom 7
      - [ -0.02766021992349,  0.00000000000000 ]
      - [  0.02623353480931,  0.00000000000000 ]
      - [  0.01328764571746,  0.00000000000000 ]
    - # atom 8
      - [ -0.02776827822259,  0.00000000000000 ]
      - [  0.02624436456026,  0.00000000000000 ]
      - [  0.01324580802330,  0.00000000000000 ]
    - # atom 9
      - [ -0.39616336174856,  0.00000000000000 ]
      - [  0.37604757860612,  0.00000000000000 ]
      - [  0.18978540986053,  0.00000000000000 ]
    - # atom 10
      - [ -0.30985290544472,  0.00000000000000 ]
      - [  0.29437633627619,  0.00000000000000 ]
      - [  0.14863319764921,  0.00000000000000 ]
    - # atom 11
      - [ -0.30965466816579,  0.00000000000000 ]
      - [  0.29432846791540,  0.00000000000000 ]
      - [  0.14827218434811,  0.00000000000000 ]
    - # atom 12
      - [ -0.31000975955962,  0.00000000000000 ]
      - [  0.29428265838983,  0.00000000000000 ]
      - [  0.14792330554040,  0.00000000000000 ]
  - # 3
    frequency:     0.0013536863
    eigenvector:
    - # atom 1
      - [ -0.10158690555480,  0.00000000000000 ]
      - [ -0.08584602152649,  0.00000000000000 ]
      - [ -0.04149654983688,  0.00000000000000 ]
    - # atom 2
      - [ -0.10974349550448,  0.00000000000000 ]
      - [ -0.09279535058810,  0.00000000000000 ]
      - [ -0.04473502225412,  0.00000000000000 ]
    - # atom 3
      - [ -0.02941328355621,  0.00000000000000 ]
      - [ -0.02488706513910,  0.00000000000000 ]
      - [ -0.01201825791983,  0.00000000000000 ]
    - # atom 4
      - [ -0.02940935622091,  0.00000000000000 ]
      - [ -0.02485024121019,  0.00000000000000 ]
      - [ -0.01204493812089,  0.00000000000000 ]
    - # atom 5
      - [ -0.02945784786852,  0.00000000000000 ]
      - [ -0.02484790398682,  0.00000000000000 ]
      - [ -0.01201614154818,  0.00000000000000 ]
    - # atom 6
      - [ -0.02942350174586,  0.00000000000000 ]
      - [ -0.02489542421254,  0.00000000000000 ]
      - [ -0.01198092858378,  0.00000000000000 ]
    - # atom 7
      - [ -0.02943731356008,  0.00000000000000 ]
      - [ -0.02489381705916,  0.00000000000000 ]
      - [ -0.01199665014220,  0.00000000000000 ]
    - # atom 8
      - [ -0.02945481218057,  0.00000000000000 ]
      - [ -0.02490033042809,  0.00000000000000 ]
      - [ -0.01200062916661,  0.00000000000000 ]
    - # atom 9
      - [ -0.42107154691401,  0.00000000000000 ]
      - [ -0.35677109747488,  0.00000000000000 ]
      - [ -0.17181809800833,  0.00000000000000 ]
    - # atom 10
      - [ -0.32965890529371,  0.00000000000000 ]
      - [ -0.27929029389955,  0.00000000000000 ]
      - [ -0.13441740494031,  0.00000000000000 ]
    - # atom 11
      - [ -0.32935203051624,  0.00000000000000 ]
      - [ -0.27924259689731,  0.00000000000000 ]
      - [ -0.13484416058248,  0.00000000000000 ]
    - # atom 12
      - [ -0.32955204589196,  0.00000000000000 ]
      - [ -0.27922092881874,  0.00000000000000 ]
      - [ -0.13453777458219,  0.00000000000000 ]
  - # 4
    frequency:     0.5600619047
    eigenvector:
    - # atom 1
      - [ -0.00049868380675,  0.00000000000000 ]
      - [ -0.11488911646316,  0.00000000000000 ]
      - [ -0.00055935780201,  0.00000000000000 ]
    - # atom 2
      - [ -0.00009766867578,  0.00000000000000 ]
      - [ -0.17180787826560,  0.00000000000000 ]
      - [ -0.00131986775163,  0.00000000000000 ]
    - # atom 3
      - [ -0.00029311797449,  0.00000000000000 ]
      - [ -0.03803209140388,  0.00000000000000 ]
      - [ -0.00018231566656,  0.00000000000000 ]
    - # atom 4
      - [  0.00851255390749,  0.00000000000000 ]
      - [ -0.02723495777707,  0.00000000000000 ]
      - [ -0.00279646137721,  0.00000000000000 ]
    - # atom 5
      - [ -0.00869412204410,  0.00000000000000 ]
      - [ -0.02726763978975,  0.00000000000000 ]
      - [  0.00264410652639,  0.00000000000000 ]
    - # atom 6
      - [  0.00528821199673,  0.00000000000000 ]
      - [ -0.04746044763296,  0.00000000000000 ]
      - [  0.00572474919812,  0.00000000000000 ]
    - # atom 7
      - [ -0.00543968728583,  0.00000000000000 ]
      - [ -0.04744937342879,  0.00000000000000 ]
      - [ -0.00658341273576,  0.00000000000000 ]
    - # atom 8
      - [  0.00017335607099,  0.00000000000000 ]
      - [ -0.05687068860156,  0.00000000000000 ]
      - [ -0.00035326640847,  0.00000000000000 ]
    - # atom 9
      - [  0.00234512345507,  0.00000000000000 ]
      - [ -0.11151892322162,  0.00000000000000 ]
      - [ -0.00031228206985,  0.00000000000000 ]
    - # atom 10
      - [ -0.00117878309884,  0.00000000000000 ]
      - [ -0.50046872190678,  0.00000000000000 ]
      - [ -0.00081094899530,  0.00000000000000 ]
    - # atom 11
      - [ -0.00307378698441,  0.00000000000000 ]
      - [ -0.06655756547395,  0.00000000000000 ]
      - [ -0.00300391548793,  0.00000000000000 ]
    - # atom 12
      - [  0.00145300592737,  0.00000000000000 ]
      - [  0.82397034853402,  0.00000000000000 ]
      - [  0.00477715180666,  0.00000000000000 ]
  - # 5
    frequency:     0.8003332182
    eigenvector:
    - # atom 1
      - [ -0.06886266422705,  0.00000000000000 ]
      - [  0.00026439603988,  0.00000000000000 ]
      - [ -0.04586512724770,  0.00000000000000 ]
    - # atom 2
      - [ -0.06304544388497,  0.00000000000000 ]
      - [  0.00061073653581,  0.00000000000000 ]
      - [ -0.07564179555229,  0.00000000000000 ]
    - # atom 3
      - [ -0.02611502822867,  0.00000000000000 ]
      - [  0.00030689277517,  0.00000000000000 ]
      - [ -0.01378428581627,  0.00000000000000 ]
    - # atom 4
      - [ -0.01890287306359,  0.00000000000000 ]
      - [ -0.00031153870649,  0.00000000000000 ]
      - [ -0.01081420148911,  0.00000000000000 ]
    - # atom 5
      - [ -0.01863929790007,  0.00000000000000 ]
      - [  0.00018115019923,  0.00000000000000 ]
      - [ -0.01118053900295,  0.00000000000000 ]
    - # atom 6
      - [ -0.01837479115623,  0.00000000000000 ]
      - [  0.00060813959772,  0.00000000000000 ]
      - [ -0.02228896335499,  0.00000000000000 ]
    - # atom 7
      - [ -0.01819892867571,  0.00000000000000 ]
      - [ -0.00012245051053,  0.00000000000000 ]
      - [ -0.02244261221466,  0.00000000000000 ]
    - # atom 8
      - [ -0.01063895318806,  0.00000000000000 ]
      - [  0.00007563242741,  0.00000000000000 ]
      - [ -0.02028528408287,  0.00000000000000 ]
    - # atom 9
      - [  0.13077126710183,  0.00000000000000 ]
      - [  0.00270504342817,  0.00000000000000 ]
      - [ -0.12177828733099,  0.00000000000000 ]
    - # atom 10
      - [ -0.35434605216632,  0.00000000000000 ]
      - [  0.00251868439248,  0.00000000000000 ]
      - [ -0.08459138991836,  0.00000000000000 ]
    - # atom 11
      - [  0.14997158402012,  0.00000000000000 ]
      - [  0.00126485023979,  0.00000000000000 ]
      - [ -0.46757126234039,  0.00000000000000 ]
    - # atom 12
      - [  0.08915505539404,  0.00000000000000 ]
      - [ -0.00471528320451,  0.00000000000000 ]
      - [  0.75212751302517,  0.00000000000000 ]
  - # 6
    frequency:     0.8627233422
    eigenvector:
    - # atom 1
      - [ -0.07659363182125,  0.00000000000000 ]
      - [ -0.00007918935600,  0.00000000000000 ]
      - [ -0.03175298524620,  0.00000000000000 ]
    - # atom 2
      - [ -0.05800963122541,  0.00000000000000 ]
      - [  0.00007775991742,  0.00000000000000 ]
      - [ -0.09377456644739,  0.00000000000000 ]
    - # atom 3
      - [ -0.03472544970371,  0.00000000000000 ]
      - [  0.00011105710479,  0.00000000000000 ]
      - [ -0.01028757508020,  0.00000000000000 ]
    - # atom 4
      - [ -0.01853303221186,  0.00000000000000 ]
      - [ -0.00013567219539,  0.00000000000000 ]
      - [ -0.00298068890775,  0.00000000000000 ]
    - # atom 5
      - [ -0.01837439737532,  0.00000000000000 ]
      - [ -0.00006755259574,  0.00000000000000 ]
      - [ -0.00320288735418,  0.00000000000000 ]
    - # atom 6
      - [ -0.01836223625238,  0.00000000000000 ]
      - [ -0.00060380672180,  0.00000000000000 ]
      - [ -0.03113412788337,  0.00000000000000 ]
    - # atom 7
      - [ -0.01827039755686,  0.00000000000000 ]
      - [  0.00069538993347,  0.00000000000000 ]
      - [ -0.03116888183568,  0.00000000000000 ]
    - # atom 8
      - [ -0.00207968826669,  0.00000000000000 ]
      - [  0.00000251133763,  0.00000000000000 ]
      - [ -0.02420172674335,  0.00000000000000 ]
    - # atom 9
      - [  0.50296186471891,  0.00000000000000 ]
      - [  0.00264074756018,  0.00000000000000 ]
      - [  0.13109422239424,  0.00000000000000 ]
    - # atom 10
      - [  0.04002614898145,  0.00000000000000 ]
      - [  0.00116830925053,  0.00000000000000 ]
      - [  0.03538150464464,  0.00000000000000 ]
    - # atom 11
      - [ -0.80760311111010,  0.00000000000000 ]
      - [  0.00092903437994,  0.00000000000000 ]
      - [ -0.13712679140628,  0.00000000000000 ]
    - # atom 12
      - [  0.17712926275305,  0.00000000000000 ]
      - [ -0.00414826234878,  0.00000000000000 ]
      - [ -0.01771132273650,  0.00000000000000 ]
  - # 7
    frequency:     0.9780552237
    eigenvector:
    - # atom 1
      - [ -0.09877510417984,  0.00000000000000 ]
      - [ -0.00017605661485,  0.00000000000000 ]
      - [  0.06796986454909,  0.00000000000000 ]
    - # atom 2
      - [ -0.12957830376457,  0.00000000000000 ]
      - [ -0.00050693455637,  0.00000000000000 ]
      - [  0.12624687130098,  0.00000000000000 ]
    - # atom 3
      - [ -0.01721976972702,  0.00000000000000 ]
      - [  0.00001005840904,  0.00000000000000 ]
      - [  0.02066898489205,  0.00000000000000 ]
    - # atom 4
      - [ -0.03210777644604,  0.00000000000000 ]
      - [ -0.00004510386670,  0.00000000000000 ]
      - [  0.01406847323965,  0.00000000000000 ]
    - # atom 5
      - [ -0.03219431799261,  0.00000000000000 ]
      - [ -0.00005499796901,  0.00000000000000 ]
      - [  0.01397831279981,  0.00000000000000 ]
    - # atom 6
      - [ -0.03258894747446,  0.00000000000000 ]
      - [  0.00077553768421,  0.00000000000000 ]
      - [  0.03911843167701,  0.00000000000000 ]
    - # atom 7
      - [ -0.03268573064237,  0.00000000000000 ]
      - [ -0.00107636861563,  0.00000000000000 ]
      - [  0.03907812079109,  0.00000000000000 ]
    - # atom 8
      - [ -0.04629677963931,  0.00000000000000 ]
      - [ -0.00015102603586,  0.00000000000000 ]
      - [  0.03298862980517,  0.00000000000000 ]
    - # atom 9
      - [  0.40217684682295,  0.00000000000000 ]
      - [  0.00153032072939,  0.00000000000000 ]
      - [  0.04670961545966,  0.00000000000000 ]
    - # atom 10
      - [ -0.74562130200310,  0.00000000000000 ]
      - [ -0.00241280441336,  0.00000000000000 ]
      - [ -0.02424474893655,  0.00000000000000 ]
    - # atom 11
      - [  0.21398593645482,  0.00000000000000 ]
      - [  0.00046242680987,  0.00000000000000 ]
      - [  0.22410129666780,  0.00000000000000 ]
    - # atom 12
      - [  0.10875421801529,  0.00000000000000 ]
      - [ -0.00000289512746,  0.00000000000000 ]
      - [ -0.33611710489591,  0.00000000000000 ]
  - # 8
    frequency:     0.9832706148
    eigenvector:
    - # atom 1
      - [ -0.00032852648171,  0.00000000000000 ]
      - [  0.20430602039144,  0.00000000000000 ]
      - [  0.00044278270210,  0.00000000000000 ]
    - # atom 2
      - [ -0.00032732808251,  0.00000000000000 ]
      - [  0.19189604103677,  0.00000000000000 ]
      - [  0.00045426108287,  0.00000000000000 ]
    - # atom 3
      - [ -0.00011347665504,  0.00000000000000 ]
      - [  0.07075525668909,  0.00000000000000 ]
      - [  0.00011512813121,  0.00000000000000 ]
    - # atom 4
      - [  0.00136899994846,  0.00000000000000 ]
      - [  0.05647684464230,  0.00000000000000 ]
      - [  0.00989178649671,  0.00000000000000 ]
    - # atom 5
      - [ -0.00155356372251,  0.00000000000000 ]
      - [  0.05645590575350,  0.00000000000000 ]
      - [ -0.00962364355146,  0.00000000000000 ]
    - # atom 6
      - [ -0.00083264877047,  0.00000000000000 ]
      - [  0.05620813891708,  0.00000000000000 ]
      - [  0.01191291814469,  0.00000000000000 ]
    - # atom 7
      - [  0.00063774655839,  0.00000000000000 ]
      - [  0.05617354028033,  0.00000000000000 ]
      - [ -0.01169622782880,  0.00000000000000 ]
    - # atom 8
      - [ -0.00006942209752,  0.00000000000000 ]
      - [  0.03612751960728,  0.00000000000000 ]
      - [  0.00014086649190,  0.00000000000000 ]
    - # atom 9
      - [  0.00271172927971,  0.00000000000000 ]
      - [ -0.61943346503880,  0.00000000000000 ]
      - [ -0.00158420013918,  0.00000000000000 ]
    - # atom 10
      - [ -0.00254930821389,  0.00000000000000 ]
      - [  0.57860048193384,  0.00000000000000 ]
      - [ -0.00089644604222,  0.00000000000000 ]
    - # atom 11
      - [ -0.00190076680806,  0.00000000000000 ]
      - [ -0.27324664018813,  0.00000000000000 ]
      - [  0.00113042846657,  0.00000000000000 ]
    - # atom 12
      - [  0.00121882062304,  0.00000000000000 ]
      - [  0.32983449014896,  0.00000000000000 ]
      - [  0.00144868494631,  0.00000000000000 ]
  - # 9
    frequency:     1.0375454940
    eigenvector:
    - # atom 1
      - [  0.00497450499071,  0.00000000000000 ]
      - [  0.00040861540161,  0.00000000000000 ]
      - [ -0.21086011402497,  0.00000000000000 ]
    - # atom 2
      - [ -0.04289375404939,  0.00000000000000 ]
      - [  0.00049386244722,  0.00000000000000 ]
      - [ -0.11468443749429,  0.00000000000000 ]
    - # atom 3
      - [  0.02592740101107,  0.00000000000000 ]
      - [  0.00008250160260,  0.00000000000000 ]
      - [ -0.05907524266964,  0.00000000000000 ]
    - # atom 4
      - [ -0.00625405176136,  0.00000000000000 ]
      - [ -0.00007247989176,  0.00000000000000 ]
      - [ -0.07278196450750,  0.00000000000000 ]
    - # atom 5
      - [ -0.00630504407417,  0.00000000000000 ]
      - [  0.00033558488722,  0.00000000000000 ]
      - [ -0.07270255736760,  0.00000000000000 ]
    - # atom 6
      - [ -0.00477689092172,  0.00000000000000 ]
      - [  0.00046685196955,  0.00000000000000 ]
      - [ -0.01721597524328,  0.00000000000000 ]
    - # atom 7
      - [ -0.00482566747309,  0.00000000000000 ]
      - [ -0.00022745471786,  0.00000000000000 ]
      - [ -0.01713205006238,  0.00000000000000 ]
    - # atom 8
      - [ -0.03514680627868,  0.00000000000000 ]
      - [  0.00017783793721,  0.00000000000000 ]
      - [ -0.03158483048865,  0.00000000000000 ]
    - # atom 9
      - [ -0.05366438197995,  0.00000000000000 ]
      - [ -0.00200790212812,  0.00000000000000 ]
      - [  0.61596365666237,  0.00000000000000 ]
    - # atom 10
      - [ -0.02974670915968,  0.00000000000000 ]
      - [  0.00144860863897,  0.00000000000000 ]
      - [  0.23545989449490,  0.00000000000000 ]
    - # atom 11
      - [  0.19248381648385,  0.00000000000000 ]
      - [ -0.00081597793504,  0.00000000000000 ]
      - [ -0.58916366476730,  0.00000000000000 ]
    - # atom 12
      - [ -0.07728160303926,  0.00000000000000 ]
      - [  0.00142768593768,  0.00000000000000 ]
      - [ -0.30669990397101,  0.00000000000000 ]
  - # 10
    frequency:     1.7476525038
    eigenvector:
    - # atom 1
      - [  0.23606353548453,  0.00000000000000 ]
      - [  0.00099459440807,  0.00000000000000 ]
      - [ -0.72447144922967,  0.00000000000000 ]
    - # atom 2
      - [ -0.04448432216443,  0.00000000000000 ]
      - [  0.00041370859074,  0.00000000000000 ]
      - [ -0.08082201168410,  0.00000000000000 ]
    - # atom 3
      - [  0.22547250842736,  0.00000000000000 ]
      - [  0.00060324211866,  0.00000000000000 ]
      - [ -0.19705912121107,  0.00000000000000 ]
    - # atom 4
      - [  0.02077167956788,  0.00000000000000 ]
      - [  0.00034655434774,  0.00000000000000 ]
      - [ -0.28657518998053,  0.00000000000000 ]
    - # atom 5
      - [  0.02047142448441,  0.00000000000000 ]
      - [  0.00005897842067,  0.00000000000000 ]
      - [ -0.28693319062795,  0.00000000000000 ]
    - # atom 6
      - [  0.02575152388421,  0.00000000000000 ]
      - [  0.00050146794117,  0.00000000000000 ]
      - [  0.04746176566803,  0.00000000000000 ]
    - # atom 7
      - [  0.02537132041058,  0.00000000000000 ]
      - [ -0.00031659770577,  0.00000000000000 ]
      - [  0.04744567500601,  0.00000000000000 ]
    - # atom 8
      - [ -0.15350229973735,  0.00000000000000 ]
      - [  0.00007374337844,  0.00000000000000 ]
      - [ -0.02600121300595,  0.00000000000000 ]
    - # atom 9
      - [  0.02506565014542,  0.00000000000000 ]
      - [  0.00073965062834,  0.00000000000000 ]
      - [ -0.14237717119830,  0.00000000000000 ]
    - # atom 10
      - [ -0.08343768139256,  0.00000000000000 ]
      - [ -0.00059057199984,  0.00000000000000 ]
      - [  0.16406372148866,  0.00000000000000 ]
    - # atom 11
      - [ -0.03640780783548,  0.00000000000000 ]
      - [ -0.00075496407621,  0.00000000000000 ]
      - [  0.25204457655140,  0.00000000000000 ]
    - # atom 12
      - [  0.01566275898761,  0.00000000000000 ]
      - [ -0.00023925061090,  0.00000000000000 ]
      - [  0.07745106784905,  0.00000000000000 ]
  - # 11
    frequency:     1.9725491793
    eigenvector:
    - # atom 1
      - [  0.00066289732555,  0.00000000000000 ]
      - [  0.75562268542584,  0.00000000000000 ]
      - [  0.00063490444028,  0.00000000000000 ]
    - # atom 2
      - [  0.00175849247899,  0.00000000000000 ]
      - [  0.15428770257091,  0.00000000000000 ]
      - [ -0.00010692391409,  0.00000000000000 ]
    - # atom 3
      - [ -0.00018200390159,  0.00000000000000 ]
      - [  0.31844569481987,  0.00000000000000 ]
      - [  0.00004914429154,  0.00000000000000 ]
    - # atom 4
      - [  0.08498402939954,  0.00000000000000 ]
      - [  0.23707466818114,  0.00000000000000 ]
      - [  0.08754740959726,  0.00000000000000 ]
    - # atom 5
      - [ -0.08441932874988,  0.00000000000000 ]
      - [  0.23677156980137,  0.00000000000000 ]
      - [ -0.08688687778243,  0.00000000000000 ]
    - # atom 6
      - [  0.07201781255490,  0.00000000000000 ]
      - [  0.01775971499563,  0.00000000000000 ]
      - [  0.05732792341307,  0.00000000000000 ]
    - # atom 7
      - [ -0.07123226451427,  0.00000000000000 ]
      - [  0.01755383812243,  0.00000000000000 ]
      - [ -0.05761678328325,  0.00000000000000 ]
    - # atom 8
      - [  0.00082746080669,  0.00000000000000 ]
      - [ -0.02565288117425,  0.00000000000000 ]
      - [  0.00005519267969,  0.00000000000000 ]
    - # atom 9
      - [ -0.00091529214382,  0.00000000000000 ]
      - [  0.11507022302532,  0.00000000000000 ]
      - [  0.00222900446015,  0.00000000000000 ]
    - # atom 10
      - [ -0.00008154530481,  0.00000000000000 ]
      - [ -0.33310420737639,  0.00000000000000 ]
      - [ -0.00329124769367,  0.00000000000000 ]
    - # atom 11
      - [ -0.00053943652666,  0.00000000000000 ]
      - [ -0.13624237738678,  0.00000000000000 ]
      - [ -0.00022134050588,  0.00000000000000 ]
    - # atom 12
      - [  0.00080835643942,  0.00000000000000 ]
      - [ -0.03258117964027,  0.00000000000000 ]
      - [  0.00049379655509,  0.00000000000000 ]
  - # 12
    frequency:     2.0681823566
    eigenvector:
    - # atom 1
      - [  0.06267098914170,  0.00000000000000 ]
      - [ -0.00303370922475,  0.00000000000000 ]
      - [ -0.09410363980418,  0.00000000000000 ]
    - # atom 2
      - [  0.04728393538667,  0.00000000000000 ]
      - [ -0.00070232258333,  0.00000000000000 ]
      - [ -0.05450499274796,  0.00000000000000 ]
    - # atom 3
      - [  0.02936809898375,  0.00000000000000 ]
      - [ -0.00080263833581,  0.00000000000000 ]
      - [ -0.02638106431166,  0.00000000000000 ]
    - # atom 4
      - [  0.01450566387801,  0.00000000000000 ]
      - [ -0.00110099109997,  0.00000000000000 ]
      - [ -0.03275672125399,  0.00000000000000 ]
    - # atom 5
      - [  0.01545433355980,  0.00000000000000 ]
      - [ -0.00125173772471,  0.00000000000000 ]
      - [ -0.03280510452938,  0.00000000000000 ]
    - # atom 6
      - [  0.01399245309208,  0.00000000000000 ]
      - [  0.00002730114503,  0.00000000000000 ]
      - [ -0.01204922951677,  0.00000000000000 ]
    - # atom 7
      - [  0.01472098309816,  0.00000000000000 ]
      - [  0.00005613688290,  0.00000000000000 ]
      - [ -0.01205011799337,  0.00000000000000 ]
    - # atom 8
      - [  0.00338196655445,  0.00000000000000 ]
      - [ -0.00022034437982,  0.00000000000000 ]
      - [ -0.01492779162878,  0.00000000000000 ]
    - # atom 9
      - [ -0.30803740073585,  0.00000000000000 ]
      - [  0.00041858505344,  0.00000000000000 ]
      - [  0.40880513753324,  0.00000000000000 ]
    - # atom 10
      - [ -0.08604360809362,  0.00000000000000 ]
      - [  0.00183153080807,  0.00000000000000 ]
      - [ -0.65021048540870,  0.00000000000000 ]
    - # atom 11
      - [ -0.07163541170964,  0.00000000000000 ]
      - [ -0.00028118253140,  0.00000000000000 ]
      - [  0.14025446111058,  0.00000000000000 ]
    - # atom 12
      - [  0.50775322230461,  0.00000000000000 ]
      - [ -0.00030454350973,  0.00000000000000 ]
      - [  0.04579560949023,  0.00000000000000 ]
  - # 13
    frequency:     2.2478351598
    eigenvector:
    - # atom 1
      - [  0.20864269316966,  0.00000000000000 ]
      - [ -0.00131831247198,  0.00000000000000 ]
      - [ -0.03545128544681,  0.00000000000000 ]
    - # atom 2
      - [  0.25392055597724,  0.00000000000000 ]
      - [ -0.00029624158847,  0.00000000000000 ]
      - [ -0.11014955081843,  0.00000000000000 ]
    - # atom 3
      - [  0.04564971023957,  0.00000000000000 ]
      - [ -0.00028997877324,  0.00000000000000 ]
      - [ -0.01155902327755,  0.00000000000000 ]
    - # atom 4
      - [  0.06487669586768,  0.00000000000000 ]
      - [ -0.00063232751390,  0.00000000000000 ]
      - [ -0.00258356365029,  0.00000000000000 ]
    - # atom 5
      - [  0.06536541746321,  0.00000000000000 ]
      - [ -0.00044862315547,  0.00000000000000 ]
      - [ -0.00271209781676,  0.00000000000000 ]
    - # atom 6
      - [  0.06302410054688,  0.00000000000000 ]
      - [  0.00052845497715,  0.00000000000000 ]
      - [ -0.03878115713412,  0.00000000000000 ]
    - # atom 7
      - [  0.06341211103149,  0.00000000000000 ]
      - [ -0.00042631297751,  0.00000000000000 ]
      - [ -0.03890441701431,  0.00000000000000 ]
    - # atom 8
      - [  0.08382231098630,  0.00000000000000 ]
      - [ -0.00017618317983,  0.00000000000000 ]
      - [ -0.02887212357980,  0.00000000000000 ]
    - # atom 9
      - [  0.34728453855927,  0.00000000000000 ]
      - [ -0.00068717718466,  0.00000000000000 ]
      - [  0.23780853967513,  0.00000000000000 ]
    - # atom 10
      - [  0.00149451703406,  0.00000000000000 ]
      - [  0.00058286908103,  0.00000000000000 ]
      - [ -0.44875861857456,  0.00000000000000 ]
    - # atom 11
      - [  0.04061299681767,  0.00000000000000 ]
      - [  0.00130793895188,  0.00000000000000 ]
      - [  0.10529236652332,  0.00000000000000 ]
    - # atom 12
      - [ -0.66943407155008,  0.00000000000000 ]
      - [ -0.00019236198401,  0.00000000000000 ]
      - [  0.09792770455709,  0.00000000000000 ]
  - # 14
    frequency:     2.4285602619
    eigenvector:
    - # atom 1
      - [  0.00060224102891,  0.00000000000000 ]
      - [  0.11116793872075,  0.00000000000000 ]
      - [ -0.00044445268712,  0.00000000000000 ]
    - # atom 2
      - [  0.00040468698653,  0.00000000000000 ]
      - [  0.00255917463214,  0.00000000000000 ]
      - [  0.00022278672895,  0.00000000000000 ]
    - # atom 3
      - [  0.00030310614416,  0.00000000000000 ]
      - [  0.01909671760080,  0.00000000000000 ]
      - [ -0.00009887785510,  0.00000000000000 ]
    - # atom 4
      - [  0.02573279000453,  0.00000000000000 ]
      - [  0.05076779722323,  0.00000000000000 ]
      - [ -0.00934996019297,  0.00000000000000 ]
    - # atom 5
      - [ -0.02550389555593,  0.00000000000000 ]
      - [  0.05077107943108,  0.00000000000000 ]
      - [  0.00890498110593,  0.00000000000000 ]
    - # atom 6
      - [  0.02223800663065,  0.00000000000000 ]
      - [ -0.01804930534394,  0.00000000000000 ]
      - [ -0.01370086199180,  0.00000000000000 ]
    - # atom 7
      - [ -0.02193949531989,  0.00000000000000 ]
      - [ -0.01805803760746,  0.00000000000000 ]
      - [  0.01396118228981,  0.00000000000000 ]
    - # atom 8
      - [ -0.00001880024261,  0.00000000000000 ]
      - [  0.02032050512764,  0.00000000000000 ]
      - [  0.00004803443675,  0.00000000000000 ]
    - # atom 9
      - [ -0.00059093111097,  0.00000000000000 ]
      - [ -0.50579165743389,  0.00000000000000 ]
      - [  0.00000973766705,  0.00000000000000 ]
    - # atom 10
      - [ -0.00063815022852,  0.00000000000000 ]
      - [ -0.15436838979135,  0.00000000000000 ]
      - [  0.00003961208419,  0.00000000000000 ]
    - # atom 11
      - [ -0.00069184296417,  0.00000000000000 ]
      - [  0.83232584880330,  0.00000000000000 ]
      - [ -0.00016684744670,  0.00000000000000 ]
    - # atom 12
      - [  0.00169180534846,  0.00000000000000 ]
      - [ -0.07606958894909,  0.00000000000000 ]
      - [  0.00020041232562,  0.00000000000000 ]
  - # 15
    frequency:     2.7460757821
    eigenvector:
    - # atom 1
      - [ -0.45629748579716,  0.00000000000000 ]
      - [  0.00107306380194,  0.00000000000000 ]
      - [ -0.13308392695907,  0.00000000000000 ]
    - # atom 2
      - [ -0.59667326904824,  0.00000000000000 ]
      - [ -0.00003904076848,  0.00000000000000 ]
      - [  0.12423003404551,  0.00000000000000 ]
    - # atom 3
      - [ -0.07370540267865,  0.00000000000000 ]
      - [  0.00010139834663,  0.00000000000000 ]
      - [ -0.03361841470346,  0.00000000000000 ]
    - # atom 4
      - [ -0.14999784358067,  0.00000000000000 ]
      - [  0.00073150478999,  0.00000000000000 ]
      - [ -0.06799690965197,  0.00000000000000 ]
    - # atom 5
      - [ -0.15067229598548,  0.00000000000000 ]
      - [  0.00034067459075,  0.00000000000000 ]
      - [ -0.06764531307490,  0.00000000000000 ]
    - # atom 6
      - [ -0.14283149117756,  0.00000000000000 ]
      - [ -0.00299502814184,  0.00000000000000 ]
      - [  0.05946226830369,  0.00000000000000 ]
    - # atom 7
      - [ -0.14336283807547,  0.00000000000000 ]
      - [  0.00259375526408,  0.00000000000000 ]
      - [  0.05979742962697,  0.00000000000000 ]
    - # atom 8
      - [ -0.21512870968053,  0.00000000000000 ]
      - [  0.00021989573569,  0.00000000000000 ]
      - [  0.03060758724640,  0.00000000000000 ]
    - # atom 9
      - [  0.12145795868402,  0.00000000000000 ]
      - [ -0.00066095293251,  0.00000000000000 ]
      - [  0.08975798354011,  0.00000000000000 ]
    - # atom 10
      - [  0.31034142866404,  0.00000000000000 ]
      - [ -0.00059280448767,  0.00000000000000 ]
      - [ -0.26113533043542,  0.00000000000000 ]
    - # atom 11
      - [  0.12820064236670,  0.00000000000000 ]