mesh: [     1,     1,     1 ]
nqpoint: 1      
natom:   12     
reciprocal_lattice:
- [   0.17774245,   0.00000102,  -0.00178477 ] # a*
- [  -0.00000134,   0.17876241,   0.00000108 ] # b*
- [  -0.00191411,  -0.00000080,   0.17348504 ] # c*
phonon:
- q-position: [    0.0000000,    0.0000000,    0.0000000 ]
  weight: 1    
  band:
  - # 1
    frequency:    -0.0350954159
    eigenvector:
    - # atom 1
      - [ -0.02350414360416,  0.00000000000000 ]
      - [  0.17695384123044,  0.00000000000000 ]
      - [ -0.05813777461455,  0.00000000000000 ]
    - # atom 2
      - [ -0.02374875596048,  0.00000000000000 ]
      - [  0.19120510782845,  0.00000000000000 ]
      - [ -0.06599774555577,  0.00000000000000 ]
    - # atom 3
      - [ -0.00758148256420,  0.00000000000000 ]
      - [  0.05159852922745,  0.00000000000000 ]
      - [ -0.01692430485698,  0.00000000000000 ]
    - # atom 4
      - [ -0.00676432664908,  0.00000000000000 ]
      - [  0.05108304724949,  0.00000000000000 ]
      - [ -0.01624211338542,  0.00000000000000 ]
    - # atom 5
      - [ -0.00651708088310,  0.00000000000000 ]
      - [  0.05110372656343,  0.00000000000000 ]
      - [ -0.01675914924111,  0.00000000000000 ]
    - # atom 6
      - [ -0.00656862905274,  0.00000000000000 ]
      - [  0.05126932673192,  0.00000000000000 ]
      - [ -0.01789279030562,  0.00000000000000 ]
    - # atom 7
      - [ -0.00647358707335,  0.00000000000000 ]
      - [  0.05144174366857,  0.00000000000000 ]
      - [ -0.01806110626871,  0.00000000000000 ]
    - # atom 8
      - [ -0.00569215512534,  0.00000000000000 ]
      - [  0.05119087322344,  0.00000000000000 ]
      - [ -0.01775500350413,  0.00000000000000 ]
    - # atom 9
      - [ -0.07725926610892,  0.00000000000000 ]
      - [  0.73170395223659,  0.00000000000000 ]
      - [ -0.24007961088925,  0.00000000000000 ]
    - # atom 10
      - [ -0.03208628489963,  0.00000000000000 ]
      - [  0.30370661417997,  0.00000000000000 ]
      - [ -0.10031534608116,  0.00000000000000 ]
    - # atom 11
      - [ -0.03136960870594,  0.00000000000000 ]
      - [  0.30264713769151,  0.00000000000000 ]
      - [ -0.10540376987455,  0.00000000000000 ]
    - # atom 12
      - [ -0.03128665001888,  0.00000000000000 ]
      - [  0.30136416407455,  0.00000000000000 ]
      - [ -0.08731749410662,  0.00000000000000 ]
  - # 2
    frequency:    -0.0142379349
    eigenvector:
    - # atom 1
      - [ -0.10313538788805,  0.00000000000000 ]
      - [  0.03843553593974,  0.00000000000000 ]
      - [  0.14777205187314,  0.00000000000000 ]
    - # atom 2
      - [ -0.11282224681345,  0.00000000000000 ]
      - [  0.04148758775042,  0.00000000000000 ]
      - [  0.16256934410462,  0.00000000000000 ]
    - # atom 3
      - [ -0.02915888530178,  0.00000000000000 ]
      - [  0.01112978870902,  0.00000000000000 ]
      - [  0.04288448351810,  0.00000000000000 ]
    - # atom 4
      - [ -0.03004903915036,  0.00000000000000 ]
      - [  0.01113852142653,  0.00000000000000 ]
      - [  0.04247543925740,  0.00000000000000 ]
    - # atom 5
      - [ -0.03005716711019,  0.00000000000000 ]
      - [  0.01113703831045,  0.00000000000000 ]
      - [  0.04248025073939,  0.00000000000000 ]
    - # atom 6
      - [ -0.03006987043018,  0.00000000000000 ]
      - [  0.01114802454143,  0.00000000000000 ]
      - [  0.04390321634747,  0.00000000000000 ]
    - # atom 7
      - [ -0.03008011257843,  0.00000000000000 ]
      - [  0.01110187640756,  0.00000000000000 ]
      - [  0.04390975321009,  0.00000000000000 ]
    - # atom 8
      - [ -0.03087986047841,  0.00000000000000 ]
      - [  0.01113303425464,  0.00000000000000 ]
      - [  0.04362242534529,  0.00000000000000 ]
    - # atom 9
      - [ -0.42458149839355,  0.00000000000000 ]
      - [  0.15946715947430,  0.00000000000000 ]
      - [  0.62752285823445,  0.00000000000000 ]
    - # atom 10
      - [ -0.17695319651931,  0.00000000000000 ]
      - [  0.06598727460400,  0.00000000000000 ]
      - [  0.25975929236918,  0.00000000000000 ]
    - # atom 11
      - [ -0.17646489130786,  0.00000000000000 ]
      - [  0.06596722562659,  0.00000000000000 ]
      - [  0.25926094648260,  0.00000000000000 ]
    - # atom 12
      - [ -0.17532800359195,  0.00000000000000 ]
      - [  0.06592267877957,  0.00000000000000 ]
      - [  0.25958069254409,  0.00000000000000 ]
  - # 3
    frequency:    -0.0048286862
    eigenvector:
    - # atom 1
      - [ -0.15528437031343,  0.00000000000000 ]
      - [ -0.04708189117564,  0.00000000000000 ]
      - [ -0.09238060781801,  0.00000000000000 ]
    - # atom 2
      - [ -0.16748832514498,  0.00000000000000 ]
      - [ -0.05082110779734,  0.00000000000000 ]
      - [ -0.10022302526130,  0.00000000000000 ]
    - # atom 3
      - [ -0.04509107476532,  0.00000000000000 ]
      - [ -0.01364788218625,  0.00000000000000 ]
      - [ -0.02676549249351,  0.00000000000000 ]
    - # atom 4
      - [ -0.04494896146542,  0.00000000000000 ]
      - [ -0.01364217019964,  0.00000000000000 ]
      - [ -0.02671620270524,  0.00000000000000 ]
    - # atom 5
      - [ -0.04494839930687,  0.00000000000000 ]
      - [ -0.01363059479428,  0.00000000000000 ]
      - [ -0.02669997211474,  0.00000000000000 ]
    - # atom 6
      - [ -0.04495405730795,  0.00000000000000 ]
      - [ -0.01362979494216,  0.00000000000000 ]
      - [ -0.02691678379624,  0.00000000000000 ]
    - # atom 7
      - [ -0.04494523562045,  0.00000000000000 ]
      - [ -0.01363160439513,  0.00000000000000 ]
      - [ -0.02691593719861,  0.00000000000000 ]
    - # atom 8
      - [ -0.04482669362069,  0.00000000000000 ]
      - [ -0.01363190535626,  0.00000000000000 ]
      - [ -0.02688662292959,  0.00000000000000 ]
    - # atom 9
      - [ -0.64135624913815,  0.00000000000000 ]
      - [ -0.19534569629701,  0.00000000000000 ]
      - [ -0.38612057395661,  0.00000000000000 ]
    - # atom 10
      - [ -0.26681202607008,  0.00000000000000 ]
      - [ -0.08080820171912,  0.00000000000000 ]
      - [ -0.15975774274895,  0.00000000000000 ]
    - # atom 11
      - [ -0.26510310170064,  0.00000000000000 ]
      - [ -0.08080511452695,  0.00000000000000 ]
      - [ -0.16021636983444,  0.00000000000000 ]
    - # atom 12
      - [ -0.26525343665092,  0.00000000000000 ]
      - [ -0.08075797725215,  0.00000000000000 ]
      - [ -0.16035455822124,  0.00000000000000 ]
  - # 4
    frequency:     1.1099877209
    eigenvector:
    - # atom 1
      - [ -0.01201164100278,  0.00000000000000 ]
      - [  0.20143361469000,  0.00000000000000 ]
      - [ -0.00169411960346,  0.00000000000000 ]
    - # atom 2
      - [ -0.00965290100650,  0.00000000000000 ]
      - [  0.27972242810603,  0.00000000000000 ]
      - [ -0.00862514564212,  0.00000000000000 ]
    - # atom 3
      - [ -0.00508631632698,  0.00000000000000 ]
      - [  0.08417009759832,  0.00000000000000 ]
      - [ -0.00064480120291,  0.00000000000000 ]
    - # atom 4
      - [ -0.01902112191326,  0.00000000000000 ]
      - [  0.04239699291142,  0.00000000000000 ]
      - [  0.01808115543861,  0.00000000000000 ]
    - # atom 5
      - [  0.01276815802376,  0.00000000000000 ]
      - [  0.04246542976773,  0.00000000000000 ]
      - [ -0.01765621369304,  0.00000000000000 ]
    - # atom 6
      - [ -0.01312614956595,  0.00000000000000 ]
      - [  0.08093328646593,  0.00000000000000 ]
      - [ -0.00521941211168,  0.00000000000000 ]
    - # atom 7
      - [  0.00732122323035,  0.00000000000000 ]
      - [  0.08119371438873,  0.00000000000000 ]
      - [ -0.00053060104877,  0.00000000000000 ]
    - # atom 8
      - [ -0.00110038468067,  0.00000000000000 ]
      - [  0.08512620127390,  0.00000000000000 ]
      - [ -0.00238826125500,  0.00000000000000 ]
    - # atom 9
      - [  0.00664148389978,  0.00000000000000 ]
      - [  0.01972599480238,  0.00000000000000 ]
      - [ -0.00083603970350,  0.00000000000000 ]
    - # atom 10
      - [ -0.00623636591920,  0.00000000000000 ]
      - [  0.39974815996046,  0.00000000000000 ]
      - [ -0.00280176279539,  0.00000000000000 ]
    - # atom 11
      - [  0.00288120163422,  0.00000000000000 ]
      - [  0.00960653935227,  0.00000000000000 ]
      - [ -0.01886891654137,  0.00000000000000 ]
    - # atom 12
      - [  0.00440134947363,  0.00000000000000 ]
      - [ -0.82851948729532,  0.00000000000000 ]
      - [  0.03377453670381,  0.00000000000000 ]
  - # 5
    frequency:     1.6351558981
    eigenvector:
    - # atom 1
      - [  0.23003989232947,  0.00000000000000 ]
      - [ -0.02059641234807,  0.00000000000000 ]
      - [  0.09027192140163,  0.00000000000000 ]
    - # atom 2
      - [  0.23970686396931,  0.00000000000000 ]
      - [ -0.01065864478494,  0.00000000000000 ]
      - [  0.11701118324470,  0.00000000000000 ]
    - # atom 3
      - [  0.07116219611487,  0.00000000000000 ]
      - [ -0.01443626855853,  0.00000000000000 ]
      - [  0.02645258810902,  0.00000000000000 ]
    - # atom 4
      - [  0.06780511725211,  0.00000000000000 ]
      - [ -0.00230561061631,  0.00000000000000 ]
      - [  0.01835855405730,  0.00000000000000 ]
    - # atom 5
      - [  0.06627639182194,  0.00000000000000 ]
      - [ -0.00369610291616,  0.00000000000000 ]
      - [  0.03193798706027,  0.00000000000000 ]
    - # atom 6
      - [  0.06551067903211,  0.00000000000000 ]
      - [ -0.00542344024026,  0.00000000000000 ]
      - [  0.02715888875268,  0.00000000000000 ]
    - # atom 7
      - [  0.06506254080686,  0.00000000000000 ]
      - [ -0.00420823807288,  0.00000000000000 ]
      - [  0.03697458121930,  0.00000000000000 ]
    - # atom 8
      - [  0.05718565718672,  0.00000000000000 ]
      - [  0.00396360787970,  0.00000000000000 ]
      - [  0.03145759947173,  0.00000000000000 ]
    - # atom 9
      - [ -0.29889134743708,  0.00000000000000 ]
      - [  0.04749280900525,  0.00000000000000 ]
      - [  0.01297066620505,  0.00000000000000 ]
    - # atom 10
      - [  0.41957427807711,  0.00000000000000 ]
      - [ -0.00711978422672,  0.00000000000000 ]
      - [  0.04928011996768,  0.00000000000000 ]
    - # atom 11
      - [  0.04414638049950,  0.00000000000000 ]
      - [  0.01815674785152,  0.00000000000000 ]
      - [  0.38735974120742,  0.00000000000000 ]
    - # atom 12
      - [ -0.10189734105725,  0.00000000000000 ]
      - [ -0.06332822023492,  0.00000000000000 ]
      - [ -0.63162649893733,  0.00000000000000 ]
  - # 6
    frequency:     1.8389620107
    eigenvector:
    - # atom 1
      - [  0.23592495720129,  0.00000000000000 ]
      - [  0.12760817658034,  0.00000000000000 ]
      - [ -0.17702859994091,  0.00000000000000 ]
    - # atom 2
      - [  0.21647996435607,  0.00000000000000 ]
      - [  0.08380068396924,  0.00000000000000 ]
      - [ -0.09662603553023,  0.00000000000000 ]
    - # atom 3
      - [  0.08802592492223,  0.00000000000000 ]
      - [  0.04578369932723,  0.00000000000000 ]
      - [ -0.04961753637044,  0.00000000000000 ]
    - # atom 4
      - [  0.06857419717693,  0.00000000000000 ]
      - [  0.03769363491001,  0.00000000000000 ]
      - [ -0.05275622080326,  0.00000000000000 ]
    - # atom 5
      - [  0.05519590413447,  0.00000000000000 ]
      - [  0.03824921755545,  0.00000000000000 ]
      - [ -0.06865734870203,  0.00000000000000 ]
    - # atom 6
      - [  0.06707514423735,  0.00000000000000 ]
      - [  0.02454705294747,  0.00000000000000 ]
      - [ -0.00428700202749,  0.00000000000000 ]
    - # atom 7
      - [  0.06045042196334,  0.00000000000000 ]
      - [  0.02400130674304,  0.00000000000000 ]
      - [ -0.02558960372935,  0.00000000000000 ]
    - # atom 8
      - [  0.03846327612727,  0.00000000000000 ]
      - [  0.00800584525777,  0.00000000000000 ]
      - [ -0.02673535948881,  0.00000000000000 ]
    - # atom 9
      - [ -0.44629550364525,  0.00000000000000 ]
      - [ -0.15450384811217,  0.00000000000000 ]
      - [ -0.01227263162740,  0.00000000000000 ]
    - # atom 10
      - [  0.26998670205607,  0.00000000000000 ]
      - [  0.11595147407473,  0.00000000000000 ]
      - [  0.04136898788095,  0.00000000000000 ]
    - # atom 11
      - [  0.48737005716305,  0.00000000000000 ]
      - [ -0.05060727197018,  0.00000000000000 ]
      - [ -0.21975607081090,  0.00000000000000 ]
    - # atom 12
      - [ -0.01806623959275,  0.00000000000000 ]
      - [  0.13693910248611,  0.00000000000000 ]
      - [  0.41482646070287,  0.00000000000000 ]
  - # 7
    frequency:     1.8620558745
    eigenvector:
    - # atom 1
      - [  0.06388097721738,  0.00000000000000 ]
      - [ -0.42348089546241,  0.00000000000000 ]
      - [ -0.10977688149621,  0.00000000000000 ]
    - # atom 2
      - [  0.04002299300187,  0.00000000000000 ]
      - [ -0.27335097397170,  0.00000000000000 ]
      - [ -0.04937184720006,  0.00000000000000 ]
    - # atom 3
      - [  0.03347179144454,  0.00000000000000 ]
      - [ -0.14877980211385,  0.00000000000000 ]
      - [ -0.03055034716422,  0.00000000000000 ]
    - # atom 4
      - [ -0.01046566239662,  0.00000000000000 ]
      - [ -0.12825081994979,  0.00000000000000 ]
      - [ -0.06288826722423,  0.00000000000000 ]
    - # atom 5
      - [  0.03781427875781,  0.00000000000000 ]
      - [ -0.12787600523361,  0.00000000000000 ]
      - [ -0.01499506768732,  0.00000000000000 ]
    - # atom 6
      - [  0.00226944045579,  0.00000000000000 ]
      - [ -0.07708583340197,  0.00000000000000 ]
      - [ -0.03837089590837,  0.00000000000000 ]
    - # atom 7
      - [  0.02710753101511,  0.00000000000000 ]
      - [ -0.07780431735986,  0.00000000000000 ]
      - [  0.02750507711000,  0.00000000000000 ]
    - # atom 8
      - [ -0.00320861226918,  0.00000000000000 ]
      - [ -0.02887564851518,  0.00000000000000 ]
      - [ -0.01367904171923,  0.00000000000000 ]
    - # atom 9
      - [ -0.10907464078699,  0.00000000000000 ]
      - [  0.47855943869017,  0.00000000000000 ]
      - [  0.03381300494665,  0.00000000000000 ]
    - # atom 10
      - [  0.03761645671701,  0.00000000000000 ]
      - [ -0.38971508400443,  0.00000000000000 ]
      - [  0.02383248424850,  0.00000000000000 ]
    - # atom 11
      - [  0.15385277055509,  0.00000000000000 ]
      - [  0.15471984860181,  0.00000000000000 ]
      - [ -0.12803774870586,  0.00000000000000 ]
    - # atom 12
      - [ -0.00457627621625,  0.00000000000000 ]
      - [ -0.40916033742358,  0.00000000000000 ]
      - [  0.14039616275023,  0.00000000000000 ]
  - # 8
    frequency:     1.8788136198
    eigenvector:
    - # atom 1
      - [  0.03196637291447,  0.00000000000000 ]
      - [  0.03817239187342,  0.00000000000000 ]
      - [ -0.52551904642320,  0.00000000000000 ]
    - # atom 2
      - [ -0.12147451024510,  0.00000000000000 ]
      - [  0.02397027230029,  0.00000000000000 ]
      - [ -0.19517795225349,  0.00000000000000 ]
    - # atom 3
      - [  0.09179282929490,  0.00000000000000 ]
      - [  0.01033087229957,  0.00000000000000 ]
      - [ -0.14570557281451,  0.00000000000000 ]
    - # atom 4
      - [ -0.01290322133628,  0.00000000000000 ]
      - [  0.01253176509800,  0.00000000000000 ]
      - [ -0.19061991127482,  0.00000000000000 ]
    - # atom 5
      - [ -0.01946252391729,  0.00000000000000 ]
      - [  0.01361181721379,  0.00000000000000 ]
      - [ -0.19020957922457,  0.00000000000000 ]
    - # atom 6
      - [ -0.00944458072802,  0.00000000000000 ]
      - [  0.00638156271183,  0.00000000000000 ]
      - [ -0.00882976216547,  0.00000000000000 ]
    - # atom 7
      - [ -0.01269998662086,  0.00000000000000 ]
      - [  0.00580653260666,  0.00000000000000 ]
      - [ -0.01268630865891,  0.00000000000000 ]
    - # atom 8
      - [ -0.10826050017628,  0.00000000000000 ]
      - [  0.00381263753540,  0.00000000000000 ]
      - [ -0.05456467425328,  0.00000000000000 ]
    - # atom 9
      - [  0.08011886535540,  0.00000000000000 ]
      - [ -0.04070750671187,  0.00000000000000 ]
      - [  0.46028041369169,  0.00000000000000 ]
    - # atom 10
      - [  0.03791077459974,  0.00000000000000 ]
      - [  0.03540082128800,  0.00000000000000 ]
      - [  0.16392964339402,  0.00000000000000 ]
    - # atom 11
      - [ -0.08898917415548,  0.00000000000000 ]
      - [ -0.01243846244561,  0.00000000000000 ]
      - [ -0.36272432049876,  0.00000000000000 ]
    - # atom 12
      - [ -0.06823959001715,  0.00000000000000 ]
      - [  0.03210866477455,  0.00000000000000 ]
      - [ -0.39326297969834,  0.00000000000000 ]
  - # 9
    frequency:     2.1086641009
    eigenvector:
    - # atom 1
      - [  0.09083283264651,  0.00000000000000 ]
      - [ -0.01279404753717,  0.00000000000000 ]
      - [ -0.07456374967862,  0.00000000000000 ]
    - # atom 2
      - [  0.15008246033336,  0.00000000000000 ]
      - [ -0.00537821566163,  0.00000000000000 ]
      - [ -0.20515470406696,  0.00000000000000 ]
    - # atom 3
      - [  0.00093349462941,  0.00000000000000 ]
      - [ -0.00647533536924,  0.00000000000000 ]
      - [ -0.02373603242012,  0.00000000000000 ]
    - # atom 4
      - [  0.03415527239718,  0.00000000000000 ]
      - [ -0.00295736071176,  0.00000000000000 ]
      - [ -0.01095927270375,  0.00000000000000 ]
    - # atom 5
      - [  0.03539683269144,  0.00000000000000 ]
      - [ -0.00350774520632,  0.00000000000000 ]
      - [ -0.00641914297733,  0.00000000000000 ]
    - # atom 6
      - [  0.03439187735387,  0.00000000000000 ]
      - [ -0.00411128447839,  0.00000000000000 ]
      - [ -0.06986238896663,  0.00000000000000 ]
    - # atom 7
      - [  0.03561104783004,  0.00000000000000 ]
      - [  0.00109554274013,  0.00000000000000 ]
      - [ -0.06731100065775,  0.00000000000000 ]
    - # atom 8
      - [  0.06910592008054,  0.00000000000000 ]
      - [  0.00016487001603,  0.00000000000000 ]
      - [ -0.05238932674324,  0.00000000000000 ]
    - # atom 9
      - [  0.00498406069185,  0.00000000000000 ]
      - [  0.00637724380843,  0.00000000000000 ]
      - [ -0.05388052577113,  0.00000000000000 ]
    - # atom 10
      - [  0.49137662174829,  0.00000000000000 ]
      - [ -0.00979966100639,  0.00000000000000 ]
      - [  0.02524425684819,  0.00000000000000 ]
    - # atom 11
      - [ -0.74159688431639,  0.00000000000000 ]
      - [  0.00235599727609,  0.00000000000000 ]
      - [ -0.00000622259811,  0.00000000000000 ]
    - # atom 12
      - [  0.05261098109894,  0.00000000000000 ]
      - [ -0.00457747437168,  0.00000000000000 ]
      - [  0.31758717148795,  0.00000000000000 ]
  - # 10
    frequency:     2.6173412996
    eigenvector:
    - # atom 1
      - [  0.15535791813669,  0.00000000000000 ]
      - [  0.00853229316390,  0.00000000000000 ]
      - [ -0.48683365968474,  0.00000000000000 ]
    - # atom 2
      - [ -0.12086019749753,  0.00000000000000 ]
      - [  0.00119687105484,  0.00000000000000 ]
      - [  0.16432430494781,  0.00000000000000 ]
    - # atom 3
      - [  0.20111618480988,  0.00000000000000 ]
      - [ -0.00870457810880,  0.00000000000000 ]
      - [ -0.12834266475680,  0.00000000000000 ]
    - # atom 4
      - [  0.00229805404418,  0.00000000000000 ]
      - [  0.00881808716975,  0.00000000000000 ]
      - [ -0.22575245277019,  0.00000000000000 ]
    - # atom 5
      - [ -0.00767356618527,  0.00000000000000 ]
      - [  0.00828951063642,  0.00000000000000 ]
      - [ -0.20877260997542,  0.00000000000000 ]
    - # atom 6
      - [  0.00538395238807,  0.00000000000000 ]
      - [ -0.00234663189037,  0.00000000000000 ]
      - [  0.10335206287250,  0.00000000000000 ]
    - # atom 7
      - [  0.00047457311350,  0.00000000000000 ]
      - [ -0.00260751765807,  0.00000000000000 ]
      - [  0.10999572416699,  0.00000000000000 ]
    - # atom 8
      - [ -0.16966085615818,  0.00000000000000 ]
      - [  0.00468461847874,  0.00000000000000 ]
      - [  0.03974542445021,  0.00000000000000 ]
    - # atom 9
      - [  0.06978911217461,  0.00000000000000 ]
      - [ -0.00354015433517,  0.00000000000000 ]
      - [ -0.28845921418223,  0.00000000000000 ]
    - # atom 10
      - [ -0.15472381338832,  0.00000000000000 ]
      - [  0.00719239629751,  0.00000000000000 ]
      - [  0.17314220570437,  0.00000000000000 ]
    - # atom 11
      - [ -0.02766835570067,  0.00000000000000 ]
      - [  0.00268111134655,  0.00000000000000 ]
      - [  0.56166650228208,  0.00000000000000 ]
    - # atom 12
      - [ -0.00403204876528,  0.00000000000000 ]
      - [ -0.00212651095919,  0.00000000000000 ]
      - [  0.18407672648248,  0.00000000000000 ]
  - # 11
    frequency:     2.8344977146
    eigenvector:
    - # atom 1
      - [  0.00113609613793,  0.00000000000000 ]
      - [  0.63237725214716,  0.00000000000000 ]
      - [  0.00091201413207,  0.00000000000000 ]
    - # atom 2
      - [  0.00218505788237,  0.00000000000000 ]
      - [ -0.17020852830476,  0.00000000000000 ]
      - [ -0.00148611401873,  0.00000000000000 ]
    - # atom 3
      - [ -0.00019681118056,  0.00000000000000 ]
      - [  0.26468813753332,  0.00000000000000 ]
      - [  0.00024952021830,  0.00000000000000 ]
    - # atom 4
      - [  0.12600591048324,  0.00000000000000 ]
      - [  0.22913118762335,  0.00000000000000 ]
      - [  0.07561637433197,  0.00000000000000 ]
    - # atom 5
      - [ -0.12495685914388,  0.00000000000000 ]
      - [  0.22916595490294,  0.00000000000000 ]
      - [ -0.07455864911212,  0.00000000000000 ]
    - # atom 6
      - [  0.10541156130208,  0.00000000000000 ]
      - [ -0.09947218117267,  0.00000000000000 ]
      - [  0.03216487456242,  0.00000000000000 ]
    - # atom 7
      - [ -0.10447659236331,  0.00000000000000 ]
      - [ -0.09952955599879,  0.00000000000000 ]
      - [ -0.03343028284428,  0.00000000000000 ]
    - # atom 8
      - [  0.00112930661433,  0.00000000000000 ]
      - [ -0.08062436804042,  0.00000000000000 ]
      - [ -0.00033839772961,  0.00000000000000 ]
    - # atom 9
      - [ -0.00217672625400,  0.00000000000000 ]
      - [  0.14564605929183,  0.00000000000000 ]
      - [  0.00065871894450,  0.00000000000000 ]
    - # atom 10
      - [  0.00149530902948,  0.00000000000000 ]
      - [ -0.51243389008656,  0.00000000000000 ]
      - [ -0.00106845769370,  0.00000000000000 ]
    - # atom 11
      - [ -0.00239208832199,  0.00000000000000 ]
      - [ -0.04624791078628,  0.00000000000000 ]
      - [ -0.00267865700823,  0.00000000000000 ]
    - # atom 12
      - [  0.00356836140531,  0.00000000000000 ]
      - [ -0.12965182394239,  0.00000000000000 ]
      - [  0.00261251987364,  0.00000000000000 ]
  - # 12
    frequency:     3.0895761563
    eigenvector:
    - # atom 1
      - [  0.05610498132494,  0.00000000000000 ]
      - [ -0.00062487592752,  0.00000000000000 ]
      - [ -0.10604684084356,  0.00000000000000 ]
    - # atom 2
      - [  0.03680056556795,  0.00000000000000 ]
      - [  0.00027680223031,  0.00000000000000 ]
      - [ -0.05914485894286,  0.00000000000000 ]
    - # atom 3
      - [  0.03019180245023,  0.00000000000000 ]
      - [ -0.00362486072307,  0.00000000000000 ]
      - [ -0.02960071073498,  0.00000000000000 ]
    - # atom 4
      - [  0.01282831412516,  0.00000000000000 ]
      - [  0.00141566751722,  0.00000000000000 ]
      - [ -0.04061558678266,  0.00000000000000 ]
    - # atom 5
      - [  0.01097013372300,  0.00000000000000 ]
      - [  0.00130016439641,  0.00000000000000 ]
      - [ -0.03526290115495,  0.00000000000000 ]
    - # atom 6
      - [  0.01064267702807,  0.00000000000000 ]
      - [ -0.00033372940118,  0.00000000000000 ]
      - [ -0.01636315170052,  0.00000000000000 ]
    - # atom 7
      - [  0.00999538136419,  0.00000000000000 ]
      - [ -0.00079848580920,  0.00000000000000 ]
      - [ -0.01407625348815,  0.00000000000000 ]
    - # atom 8
      - [ -0.00063897762474,  0.00000000000000 ]
      - [  0.00154218172025,  0.00000000000000 ]
      - [ -0.01626668993199,  0.00000000000000 ]
    - # atom 9
      - [ -0.24233620377623,  0.00000000000000 ]
      - [ -0.00149017260053,  0.00000000000000 ]
      - [  0.21916230220087,  0.00000000000000 ]
    - # atom 10
      - [ -0.16363914268983,  0.00000000000000 ]
      - [  0.00412344029263,  0.00000000000000 ]
      - [ -0.50594834894869,  0.00000000000000 ]
    - # atom 11
      - [ -0.06333338540271,  0.00000000000000 ]
      - [  0.00168531184282,  0.00000000000000 ]
      - [  0.15011757870017,  0.00000000000000 ]
    - # atom 12
      - [  0.74568076857484,  0.00000000000000 ]
      - [ -0.00003424257617,  0.00000000000000 ]
      - [ -0.05191250726262,  0.00000000000000 ]
  - # 13
    frequency:     3.3625333206
    eigenvector:
    - # atom 1
      - [  0.27815353216052,  0.00000000000000 ]
      - [  0.00569184187449,  0.00000000000000 ]
      - [ -0.06067099877437,  0.00000000000000 ]
    - # atom 2
      - [  0.34155229855751,  0.00000000000000 ]
      - [ -0.00145094601575,  0.00000000000000 ]
      - [ -0.17248582599139,  0.00000000000000 ]
    - # atom 3
      - [  0.05824878263461,  0.00000000000000 ]
      - [ -0.00942290688966,  0.00000000000000 ]
      - [ -0.01939429382978,  0.00000000000000 ]
    - # atom 4
      - [  0.09284785874407,  0.00000000000000 ]
      - [  0.00762685040628,  0.00000000000000 ]
      - [ -0.01398740091975,  0.00000000000000 ]
    - # atom 5
      - [  0.08306737982876,  0.00000000000000 ]
      - [  0.00767877528219,  0.00000000000000 ]
      - [  0.00293391371769,  0.00000000000000 ]
    - # atom 6
      - [  0.08444018725986,  0.00000000000000 ]
      - [ -0.00182341136335,  0.00000000000000 ]
      - [ -0.06559899243761,  0.00000000000000 ]
    - # atom 7
      - [  0.07933350801726,  0.00000000000000 ]
      - [ -0.00505856606116,  0.00000000000000 ]
      - [ -0.05805859945211,  0.00000000000000 ]
    - # atom 8
      - [  0.11326724027847,  0.00000000000000 ]
      - [  0.00454224578466,  0.00000000000000 ]
      - [ -0.04540879759785,  0.00000000000000 ]
    - # atom 9
      - [  0.17293847622674,  0.00000000000000 ]
      - [ -0.00422470257748,  0.00000000000000 ]
      - [  0.19457920381658,  0.00000000000000 ]
    - # atom 10
      - [ -0.31989658053862,  0.00000000000000 ]
      - [  0.00817043532757,  0.00000000000000 ]
      - [ -0.50480687981733,  0.00000000000000 ]
    - # atom 11
      - [ -0.04984540530743,  0.00000000000000 ]
      - [  0.00724418961621,  0.00000000000000 ]
      - [  0.14159040672794,  0.00000000000000 ]
    - # atom 12
      - [ -0.51410007855114,  0.00000000000000 ]
      - [ -0.00140205672462,  0.00000000000000 ]
      - [  0.06974069657047,  0.00000000000000 ]
  - # 14
    frequency:     3.9105901177
    eigenvector:
    - # atom 1
      - [ -0.01584529661784,  0.00000000000000 ]
      - [ -0.05835416592182,  0.00000000000000 ]
      - [ -0.01373398680724,  0.00000000000000 ]
    - # atom 2
      - [ -0.01874291852857,  0.00000000000000 ]
      - [  0.06718054563204,  0.00000000000000 ]
      - [ -0.00695937906067,  0.00000000000000 ]
    - # atom 3
      - [ -0.00288099666598,  0.00000000000000 ]
      - [  0.13115534188953,  0.00000000000000 ]
      - [ -0.00385270269448,  0.00000000000000 ]
    - # atom 4
      - [ -0.07684804695255,  0.00000000000000 ]
      - [ -0.10141584533012,  0.00000000000000 ]
      - [  0.11006787055042,  0.00000000000000 ]
    - # atom 5
      - [  0.06648434284017,  0.00000000000000 ]
      - [ -0.10139787777184,  0.00000000000000 ]
      - [ -0.11983775750949,  0.00000000000000 ]
    - # atom 6
      - [ -0.05439202416969,  0.00000000000000 ]
      - [  0.07898329995764,  0.00000000000000 ]
      - [  0.07899818637197,  0.00000000000000 ]
    - # atom 7
      - [  0.04547590786866,  0.00000000000000 ]
      - [  0.07992211562216,  0.00000000000000 ]
      - [ -0.08197304802593,  0.00000000000000 ]
    - # atom 8
      - [ -0.00661672118296,  0.00000000000000 ]
      - [ -0.08895990147030,  0.00000000000000 ]
      - [ -0.00217168484352,  0.00000000000000 ]
    - # atom 9
      - [  0.00398942084063,  0.00000000000000 ]
      - [  0.33515837726229,  0.00000000000000 ]
      - [  0.00901923644214,  0.00000000000000 ]
    - # atom 10
      - [  0.02589131672284,  0.00000000000000 ]
      - [  0.01945695365792,  0.00000000000000 ]
      - [ -0.03606795435993,  0.00000000000000 ]
    - # atom 11
      - [  0.01061016853724,  0.00000000000000 ]
      - [ -0.87230137392208,  0.00000000000000 ]
      - [  0.02698275355044,  0.00000000000000 ]
    - # atom 12
      - [ -0.02015285286051,  0.00000000000000 ]
      - [  0.03362318983681,  0.00000000000000 ]
      - [  0.00290246333838,  0.00000000000000 ]
  - # 15
    frequency:     4.1311938096
    eigenvector:
    - # atom 1
      - [ -0.32055976677829,  0.00000000000000 ]
      - [ -0.00398939365927,  0.00000000000000 ]
      - [ -0.09110975216167,  0.00000000000000 ]
    - # atom 2
      - [ -0.39205919039870,  0.00000000000000 ]
      - [  0.01081038445932,  0.00000000000000 ]
      - [  0.04414932593249,  0.00000000000000 ]
    - # atom 3
      - [ -0.06062627091665,  0.00000000000000 ]
      - [  0.02663734788612,  0.00000000000000 ]
      - [ -0.02360745257112,  0.00000000000000 ]
    - # atom 4
      - [ -0.11371720973423,  0.00000000000000 ]
      - [ -0.01533355561513,  0.00000000000000 ]
      - [ -0.02194303813485,  0.00000000000000 ]
    - # atom 5
      - [ -0.09076601972235,  0.00000000000000 ]
      - [ -0.01619245272780,  0.00000000000000 ]
      - [ -0.06446762475473,  0.00000000000000 ]
    - # atom 6
      - [ -0.09865243335464,  0.00000000000000 ]
      - [  0.00395752921805,  0.00000000000000 ]
      - [  0.02749540318021,  0.00000000000000 ]
    - # atom 7
      - [ -0.08860317723643,  0.00000000000000 ]
      - [  0.01407480549900,  0.00000000000000 ]
      - [  0.01294859426713,  0.00000000000000 ]
    - # atom 8
      - [ -0.13309414802575,  0.00000000000000 ]
      - [ -0.00625537272266,  0.00000000000000 ]
      - [  0.00996010790505,  0.00000000000000 ]
    - # atom 9
      - [  0.04392710182066,  0.00000000000000 ]
      - [ -0.02755430035276,  0.00000000000000 ]
      - [  0.11755086321081,  0.00000000000000 ]
    - # atom 10
      - [  0.49570180706768,  0.00000000000000 ]