mesh: [     1,     1,     1 ]
nqpoint: 1      
natom:   12     
reciprocal_lattice:
- [   0.16992440,   0.00000033,  -0.00191936 ] # a*
- [   0.00000034,   0.17083577,   0.00000012 ] # b*
- [  -0.00191526,   0.00000013,   0.16650513 ] # c*
phonon:
- q-position: [    0.0000000,    0.0000000,    0.0000000 ]
  weight: 1    
  band:
  - # 1
    frequency:    -0.0025874148
    eigenvector:
    - # atom 1
      - [  0.05180242747408,  0.00000000000000 ]
      - [  0.04703790984455,  0.00000000000000 ]
      - [  0.14207998336146,  0.00000000000000 ]
    - # atom 2
      - [  0.05595520108175,  0.00000000000000 ]
      - [  0.05075706801721,  0.00000000000000 ]
      - [  0.15341069092960,  0.00000000000000 ]
    - # atom 3
      - [  0.01500256937107,  0.00000000000000 ]
      - [  0.01363322804897,  0.00000000000000 ]
      - [  0.04115831869462,  0.00000000000000 ]
    - # atom 4
      - [  0.01501086425993,  0.00000000000000 ]
      - [  0.01362692342120,  0.00000000000000 ]
      - [  0.04116679883566,  0.00000000000000 ]
    - # atom 5
      - [  0.01500453877124,  0.00000000000000 ]
      - [  0.01362542352465,  0.00000000000000 ]
      - [  0.04115391447543,  0.00000000000000 ]
    - # atom 6
      - [  0.01501543868326,  0.00000000000000 ]
      - [  0.01361092678047,  0.00000000000000 ]
      - [  0.04114823361705,  0.00000000000000 ]
    - # atom 7
      - [  0.01500105867024,  0.00000000000000 ]
      - [  0.01361236351248,  0.00000000000000 ]
      - [  0.04114815043689,  0.00000000000000 ]
    - # atom 8
      - [  0.01501822985911,  0.00000000000000 ]
      - [  0.01361503850200,  0.00000000000000 ]
      - [  0.04115334036780,  0.00000000000000 ]
    - # atom 9
      - [  0.21544436918195,  0.00000000000000 ]
      - [  0.19522847128969,  0.00000000000000 ]
      - [  0.58993799232894,  0.00000000000000 ]
    - # atom 10
      - [  0.13366295489320,  0.00000000000000 ]
      - [  0.12121315712749,  0.00000000000000 ]
      - [  0.36633890375941,  0.00000000000000 ]
    - # atom 11
      - [  0.13380560325317,  0.00000000000000 ]
      - [  0.12123676110176,  0.00000000000000 ]
      - [  0.36637468306067,  0.00000000000000 ]
    - # atom 12
      - [  0.13380279302691,  0.00000000000000 ]
      - [  0.12126181987292,  0.00000000000000 ]
      - [  0.36645314780978,  0.00000000000000 ]
  - # 2
    frequency:     0.0009539066
    eigenvector:
    - # atom 1
      - [  0.02067817157560,  0.00000000000000 ]
      - [ -0.15128242236861,  0.00000000000000 ]
      - [  0.04245430909419,  0.00000000000000 ]
    - # atom 2
      - [  0.02231139712246,  0.00000000000000 ]
      - [ -0.16321846939738,  0.00000000000000 ]
      - [  0.04589243485962,  0.00000000000000 ]
    - # atom 3
      - [  0.00600068273104,  0.00000000000000 ]
      - [ -0.04387108169306,  0.00000000000000 ]
      - [  0.01229935025475,  0.00000000000000 ]
    - # atom 4
      - [  0.00597795897507,  0.00000000000000 ]
      - [ -0.04381484451744,  0.00000000000000 ]
      - [  0.01225272308416,  0.00000000000000 ]
    - # atom 5
      - [  0.00599570454039,  0.00000000000000 ]
      - [ -0.04381487376094,  0.00000000000000 ]
      - [  0.01233338702839,  0.00000000000000 ]
    - # atom 6
      - [  0.00596199343583,  0.00000000000000 ]
      - [ -0.04376786203530,  0.00000000000000 ]
      - [  0.01231519247619,  0.00000000000000 ]
    - # atom 7
      - [  0.00601191015704,  0.00000000000000 ]
      - [ -0.04376835605405,  0.00000000000000 ]
      - [  0.01231303815739,  0.00000000000000 ]
    - # atom 8
      - [  0.00597675825833,  0.00000000000000 ]
      - [ -0.04378392036725,  0.00000000000000 ]
      - [  0.01231104091074,  0.00000000000000 ]
    - # atom 9
      - [  0.08572057045188,  0.00000000000000 ]
      - [ -0.62777742783436,  0.00000000000000 ]
      - [  0.17642845538484,  0.00000000000000 ]
    - # atom 10
      - [  0.05323519686106,  0.00000000000000 ]
      - [ -0.38979098607886,  0.00000000000000 ]
      - [  0.10956615785466,  0.00000000000000 ]
    - # atom 11
      - [  0.05326138625960,  0.00000000000000 ]
      - [ -0.38984808724498,  0.00000000000000 ]
      - [  0.10960546708925,  0.00000000000000 ]
    - # atom 12
      - [  0.05323407942246,  0.00000000000000 ]
      - [ -0.38984711019216,  0.00000000000000 ]
      - [  0.10955361927622,  0.00000000000000 ]
  - # 3
    frequency:     0.0017816281
    eigenvector:
    - # atom 1
      - [  0.14824980731531,  0.00000000000000 ]
      - [  0.00460034141733,  0.00000000000000 ]
      - [ -0.05572988318567,  0.00000000000000 ]
    - # atom 2
      - [  0.16002651212419,  0.00000000000000 ]
      - [  0.00495970991431,  0.00000000000000 ]
      - [ -0.06002811266452,  0.00000000000000 ]
    - # atom 3
      - [  0.04298225968334,  0.00000000000000 ]
      - [  0.00131845957686,  0.00000000000000 ]
      - [ -0.01614156117437,  0.00000000000000 ]
    - # atom 4
      - [  0.04294046799373,  0.00000000000000 ]
      - [  0.00133890336874,  0.00000000000000 ]
      - [ -0.01617338703808,  0.00000000000000 ]
    - # atom 5
      - [  0.04292887732435,  0.00000000000000 ]
      - [  0.00134020566020,  0.00000000000000 ]
      - [ -0.01615053758694,  0.00000000000000 ]
    - # atom 6
      - [  0.04293840607732,  0.00000000000000 ]
      - [  0.00132763687511,  0.00000000000000 ]
      - [ -0.01609341567188,  0.00000000000000 ]
    - # atom 7
      - [  0.04293192710357,  0.00000000000000 ]
      - [  0.00132400253394,  0.00000000000000 ]
      - [ -0.01608392253597,  0.00000000000000 ]
    - # atom 8
      - [  0.04289738740735,  0.00000000000000 ]
      - [  0.00133673195703,  0.00000000000000 ]
      - [ -0.01610268613482,  0.00000000000000 ]
    - # atom 9
      - [  0.61543833199610,  0.00000000000000 ]
      - [  0.01912224432815,  0.00000000000000 ]
      - [ -0.23102616367858,  0.00000000000000 ]
    - # atom 10
      - [  0.38218093704968,  0.00000000000000 ]
      - [  0.01186834100661,  0.00000000000000 ]
      - [ -0.14344336226011,  0.00000000000000 ]
    - # atom 11
      - [  0.38237043297273,  0.00000000000000 ]
      - [  0.01187815697357,  0.00000000000000 ]
      - [ -0.14347608009699,  0.00000000000000 ]
    - # atom 12
      - [  0.38219117169470,  0.00000000000000 ]
      - [  0.01189569782121,  0.00000000000000 ]
      - [ -0.14352436106540,  0.00000000000000 ]
  - # 4
    frequency:     0.7368989498
    eigenvector:
    - # atom 1
      - [  0.00002648685184,  0.00000000000000 ]
      - [ -0.13167556027678,  0.00000000000000 ]
      - [ -0.00000593523330,  0.00000000000000 ]
    - # atom 2
      - [  0.00002274768113,  0.00000000000000 ]
      - [ -0.20124567679797,  0.00000000000000 ]
      - [  0.00000674051458,  0.00000000000000 ]
    - # atom 3
      - [  0.00000984524184,  0.00000000000000 ]
      - [ -0.05092914281339,  0.00000000000000 ]
      - [ -0.00000142289165,  0.00000000000000 ]
    - # atom 4
      - [  0.01244963080817,  0.00000000000000 ]
      - [ -0.02762364020354,  0.00000000000000 ]
      - [ -0.00871133992899,  0.00000000000000 ]
    - # atom 5
      - [ -0.01243656268845,  0.00000000000000 ]
      - [ -0.02762268648058,  0.00000000000000 ]
      - [  0.00870591707991,  0.00000000000000 ]
    - # atom 6
      - [  0.00832548813227,  0.00000000000000 ]
      - [ -0.05801281108942,  0.00000000000000 ]
      - [  0.00385210364857,  0.00000000000000 ]
    - # atom 7
      - [ -0.00831206924266,  0.00000000000000 ]
      - [ -0.05801311505685,  0.00000000000000 ]
      - [ -0.00384578135835,  0.00000000000000 ]
    - # atom 8
      - [  0.00000310449730,  0.00000000000000 ]
      - [ -0.06312483875447,  0.00000000000000 ]
      - [  0.00000183174854,  0.00000000000000 ]
    - # atom 9
      - [ -0.00006153605614,  0.00000000000000 ]
      - [ -0.09995373696184,  0.00000000000000 ]
      - [ -0.00001055298126,  0.00000000000000 ]
    - # atom 10
      - [  0.00001183598324,  0.00000000000000 ]
      - [ -0.45827714976672,  0.00000000000000 ]
      - [ -0.00000165636564,  0.00000000000000 ]
    - # atom 11
      - [  0.00002448011441,  0.00000000000000 ]
      - [ -0.05245162166514,  0.00000000000000 ]
      - [  0.00002780935052,  0.00000000000000 ]
    - # atom 12
      - [ -0.00003875038306,  0.00000000000000 ]
      - [  0.83900945291041,  0.00000000000000 ]
      - [ -0.00004582575006,  0.00000000000000 ]
  - # 5
    frequency:     1.0728870912
    eigenvector:
    - # atom 1
      - [  0.09083846249514,  0.00000000000000 ]
      - [  0.00017936400211,  0.00000000000000 ]
      - [  0.04116648440616,  0.00000000000000 ]
    - # atom 2
      - [  0.07978421959756,  0.00000000000000 ]
      - [  0.00003644414762,  0.00000000000000 ]
      - [  0.08873756114608,  0.00000000000000 ]
    - # atom 3
      - [  0.03659321783835,  0.00000000000000 ]
      - [  0.00009112786853,  0.00000000000000 ]
      - [  0.01257617915535,  0.00000000000000 ]
    - # atom 4
      - [  0.02418888665136,  0.00000000000000 ]
      - [  0.00043327300707,  0.00000000000000 ]
      - [  0.00788665379818,  0.00000000000000 ]
    - # atom 5
      - [  0.02415723421108,  0.00000000000000 ]
      - [ -0.00033584476585,  0.00000000000000 ]
      - [  0.00782155349435,  0.00000000000000 ]
    - # atom 6
      - [  0.02383244080638,  0.00000000000000 ]
      - [ -0.00049006090399,  0.00000000000000 ]
      - [  0.02736110687024,  0.00000000000000 ]
    - # atom 7
      - [  0.02380269273223,  0.00000000000000 ]
      - [  0.00050478696942,  0.00000000000000 ]
      - [  0.02732301102625,  0.00000000000000 ]
    - # atom 8
      - [  0.01102380150565,  0.00000000000000 ]
      - [ -0.00001342621775,  0.00000000000000 ]
      - [  0.02387720142885,  0.00000000000000 ]
    - # atom 9
      - [ -0.10279024220284,  0.00000000000000 ]
      - [ -0.00001622994478,  0.00000000000000 ]
      - [  0.10636398243064,  0.00000000000000 ]
    - # atom 10
      - [  0.33675354477650,  0.00000000000000 ]
      - [  0.00007864792150,  0.00000000000000 ]
      - [  0.07864634672413,  0.00000000000000 ]
    - # atom 11
      - [ -0.16729072210267,  0.00000000000000 ]
      - [ -0.00001015958487,  0.00000000000000 ]
      - [  0.45206205440277,  0.00000000000000 ]
    - # atom 12
      - [ -0.08864250564463,  0.00000000000000 ]
      - [  0.00001202256188,  0.00000000000000 ]
      - [ -0.76683193410300,  0.00000000000000 ]
  - # 6
    frequency:     1.2310205936
    eigenvector:
    - # atom 1
      - [ -0.12542369931904,  0.00000000000000 ]
      - [ -0.00016567758654,  0.00000000000000 ]
      - [ -0.01122967579769,  0.00000000000000 ]
    - # atom 2
      - [ -0.11534753249626,  0.00000000000000 ]
      - [ -0.00004323734664,  0.00000000000000 ]
      - [ -0.06391130063297,  0.00000000000000 ]
    - # atom 3
      - [ -0.04665872420793,  0.00000000000000 ]
      - [ -0.00007892959407,  0.00000000000000 ]
      - [ -0.00400759856339,  0.00000000000000 ]
    - # atom 4
      - [ -0.03317716315072,  0.00000000000000 ]
      - [ -0.00002769191065,  0.00000000000000 ]
      - [  0.00160836686811,  0.00000000000000 ]
    - # atom 5
      - [ -0.03314792922778,  0.00000000000000 ]
      - [ -0.00006493002156,  0.00000000000000 ]
      - [  0.00165991135675,  0.00000000000000 ]
    - # atom 6
      - [ -0.03360416168935,  0.00000000000000 ]
      - [ -0.00070518151963,  0.00000000000000 ]
      - [ -0.02276856165352,  0.00000000000000 ]
    - # atom 7
      - [ -0.03357907029079,  0.00000000000000 ]
      - [  0.00068568299092,  0.00000000000000 ]
      - [ -0.02273398710635,  0.00000000000000 ]
    - # atom 8
      - [ -0.01865568263704,  0.00000000000000 ]
      - [  0.00000937714070,  0.00000000000000 ]
      - [ -0.01631442226790,  0.00000000000000 ]
    - # atom 9
      - [  0.53846830039955,  0.00000000000000 ]
      - [  0.00005904115365,  0.00000000000000 ]
      - [  0.04854822463155,  0.00000000000000 ]
    - # atom 10
      - [ -0.11412890681169,  0.00000000000000 ]
      - [ -0.00010387595356,  0.00000000000000 ]
      - [ -0.00779787960481,  0.00000000000000 ]
    - # atom 11
      - [ -0.79205221746771,  0.00000000000000 ]
      - [  0.00003732469559,  0.00000000000000 ]
      - [ -0.01685540174136,  0.00000000000000 ]
    - # atom 12
      - [  0.15869522523363,  0.00000000000000 ]
      - [ -0.00001067118037,  0.00000000000000 ]
      - [ -0.01554446438335,  0.00000000000000 ]
  - # 7
    frequency:     1.3411994710
    eigenvector:
    - # atom 1
      - [ -0.13191984303255,  0.00000000000000 ]
      - [  0.00066498760259,  0.00000000000000 ]
      - [  0.05763161462229,  0.00000000000000 ]
    - # atom 2
      - [ -0.17283321053482,  0.00000000000000 ]
      - [  0.00051316298859,  0.00000000000000 ]
      - [  0.13609044121393,  0.00000000000000 ]
    - # atom 3
      - [ -0.02262062757398,  0.00000000000000 ]
      - [  0.00028285272895,  0.00000000000000 ]
      - [  0.01777228773254,  0.00000000000000 ]
    - # atom 4
      - [ -0.04338186935037,  0.00000000000000 ]
      - [  0.00006901819882,  0.00000000000000 ]
      - [  0.00901638856348,  0.00000000000000 ]
    - # atom 5
      - [ -0.04339950221809,  0.00000000000000 ]
      - [  0.00027121091276,  0.00000000000000 ]
      - [  0.00886601869119,  0.00000000000000 ]
    - # atom 6
      - [ -0.04337203692930,  0.00000000000000 ]
      - [  0.00166275209212,  0.00000000000000 ]
      - [  0.04426743263281,  0.00000000000000 ]
    - # atom 7
      - [ -0.04337594345785,  0.00000000000000 ]
      - [ -0.00133721918548,  0.00000000000000 ]
      - [  0.04413071610643,  0.00000000000000 ]
    - # atom 8
      - [ -0.06259371643522,  0.00000000000000 ]
      - [  0.00004819391714,  0.00000000000000 ]
      - [  0.03533230630153,  0.00000000000000 ]
    - # atom 9
      - [  0.29483410405085,  0.00000000000000 ]
      - [ -0.00123446485857,  0.00000000000000 ]
      - [  0.12829808553595,  0.00000000000000 ]
    - # atom 10
      - [ -0.71978254127587,  0.00000000000000 ]
      - [  0.00117169467009,  0.00000000000000 ]
      - [ -0.00824249012131,  0.00000000000000 ]
    - # atom 11
      - [  0.36523942155069,  0.00000000000000 ]
      - [ -0.00057442332146,  0.00000000000000 ]
      - [  0.09045812379479,  0.00000000000000 ]
    - # atom 12
      - [  0.03207997131541,  0.00000000000000 ]
      - [  0.00074942744343,  0.00000000000000 ]
      - [ -0.38617556109605,  0.00000000000000 ]
  - # 8
    frequency:     1.3622619544
    eigenvector:
    - # atom 1
      - [ -0.00037444002908,  0.00000000000000 ]
      - [ -0.27581518139573,  0.00000000000000 ]
      - [  0.00088185690074,  0.00000000000000 ]
    - # atom 2
      - [ -0.00023747801417,  0.00000000000000 ]
      - [ -0.23547998373220,  0.00000000000000 ]
      - [  0.00055931626138,  0.00000000000000 ]
    - # atom 3
      - [ -0.00019724876807,  0.00000000000000 ]
      - [ -0.09741556268472,  0.00000000000000 ]
      - [  0.00024974039391,  0.00000000000000 ]
    - # atom 4
      - [ -0.00584770693962,  0.00000000000000 ]
      - [ -0.07761129089453,  0.00000000000000 ]
      - [ -0.01472857345405,  0.00000000000000 ]
    - # atom 5
      - [  0.00568642012760,  0.00000000000000 ]
      - [ -0.07761172383322,  0.00000000000000 ]
      - [  0.01532280060840,  0.00000000000000 ]
    - # atom 6
      - [ -0.00053708487514,  0.00000000000000 ]
      - [ -0.07063089341441,  0.00000000000000 ]
      - [ -0.02105315011282,  0.00000000000000 ]
    - # atom 7
      - [  0.00035723093491,  0.00000000000000 ]
      - [ -0.07063479014757,  0.00000000000000 ]
      - [  0.02126587187595,  0.00000000000000 ]
    - # atom 8
      - [  0.00001182369106,  0.00000000000000 ]
      - [ -0.03503855969235,  0.00000000000000 ]
      - [  0.00014814215799,  0.00000000000000 ]
    - # atom 9
      - [  0.00055813179339,  0.00000000000000 ]
      - [  0.57104861474201,  0.00000000000000 ]
      - [ -0.00055657026793,  0.00000000000000 ]
    - # atom 10
      - [ -0.00161651296570,  0.00000000000000 ]
      - [ -0.56798384727951,  0.00000000000000 ]
      - [ -0.00042613186634,  0.00000000000000 ]
    - # atom 11
      - [  0.00087543227043,  0.00000000000000 ]
      - [  0.25176508948168,  0.00000000000000 ]
      - [  0.00117334064688,  0.00000000000000 ]
    - # atom 12
      - [  0.00013915301597,  0.00000000000000 ]
      - [ -0.34960451143728,  0.00000000000000 ]
      - [ -0.00055512931354,  0.00000000000000 ]
  - # 9
    frequency:     1.4038284799
    eigenvector:
    - # atom 1
      - [ -0.02539644188563,  0.00000000000000 ]
      - [  0.00023431536996,  0.00000000000000 ]
      - [  0.33069874902520,  0.00000000000000 ]
    - # atom 2
      - [  0.04844177402364,  0.00000000000000 ]
      - [  0.00041013587199,  0.00000000000000 ]
      - [  0.17134020819424,  0.00000000000000 ]
    - # atom 3
      - [ -0.04785190294241,  0.00000000000000 ]
      - [  0.00001758441358,  0.00000000000000 ]
      - [  0.09315588608569,  0.00000000000000 ]
    - # atom 4
      - [  0.00558833762395,  0.00000000000000 ]
      - [  0.00044088892914,  0.00000000000000 ]
      - [  0.11443085192531,  0.00000000000000 ]
    - # atom 5
      - [  0.00561523924309,  0.00000000000000 ]
      - [ -0.00028665661004,  0.00000000000000 ]
      - [  0.11451309922280,  0.00000000000000 ]
    - # atom 6
      - [  0.00151806074994,  0.00000000000000 ]
      - [ -0.00015603429841,  0.00000000000000 ]
      - [  0.02392104500075,  0.00000000000000 ]
    - # atom 7
      - [  0.00156227556422,  0.00000000000000 ]
      - [  0.00040569449374,  0.00000000000000 ]
      - [  0.02391729382621,  0.00000000000000 ]
    - # atom 8
      - [  0.05065436272598,  0.00000000000000 ]
      - [  0.00010380461929,  0.00000000000000 ]
      - [  0.04647041399736,  0.00000000000000 ]
    - # atom 9
      - [  0.02406618549851,  0.00000000000000 ]
      - [ -0.00097084504733,  0.00000000000000 ]
      - [ -0.55031822482666,  0.00000000000000 ]
    - # atom 10
      - [ -0.09858511214742,  0.00000000000000 ]
      - [  0.00103169272567,  0.00000000000000 ]
      - [ -0.23144001755564,  0.00000000000000 ]
    - # atom 11
      - [ -0.02691335850714,  0.00000000000000 ]
      - [ -0.00039226691570,  0.00000000000000 ]
      - [  0.61304627975075,  0.00000000000000 ]
    - # atom 12
      - [  0.07449534505356,  0.00000000000000 ]
      - [  0.00058475776539,  0.00000000000000 ]
      - [  0.25760629772629,  0.00000000000000 ]
  - # 10
    frequency:     2.0276437645
    eigenvector:
    - # atom 1
      - [ -0.20665825991709,  0.00000000000000 ]
      - [ -0.00230501991266,  0.00000000000000 ]
      - [  0.68006934796531,  0.00000000000000 ]
    - # atom 2
      - [  0.06921204248696,  0.00000000000000 ]
      - [  0.00006764164322,  0.00000000000000 ]
      - [  0.01592280825880,  0.00000000000000 ]
    - # atom 3
      - [ -0.22058010612425,  0.00000000000000 ]
      - [ -0.00120184485624,  0.00000000000000 ]
      - [  0.18630308637773,  0.00000000000000 ]
    - # atom 4
      - [ -0.00997096889729,  0.00000000000000 ]
      - [ -0.00079878530854,  0.00000000000000 ]
      - [  0.27415171094516,  0.00000000000000 ]
    - # atom 5
      - [ -0.00938801147960,  0.00000000000000 ]
      - [ -0.00052804986403,  0.00000000000000 ]
      - [  0.27505388323070,  0.00000000000000 ]
    - # atom 6
      - [ -0.02029512538550,  0.00000000000000 ]
      - [ -0.00035186068371,  0.00000000000000 ]
      - [ -0.06419355857490,  0.00000000000000 ]
    - # atom 7
      - [ -0.01976895129263,  0.00000000000000 ]
      - [  0.00053525249920,  0.00000000000000 ]
      - [ -0.06370643557560,  0.00000000000000 ]
    - # atom 8
      - [  0.16145929887210,  0.00000000000000 ]
      - [  0.00031094009557,  0.00000000000000 ]
      - [  0.00668371384693,  0.00000000000000 ]
    - # atom 9
      - [ -0.03006803487028,  0.00000000000000 ]
      - [ -0.00056253612646,  0.00000000000000 ]
      - [  0.18651392312207,  0.00000000000000 ]
    - # atom 10
      - [  0.12676395483022,  0.00000000000000 ]
      - [  0.00137823581035,  0.00000000000000 ]
      - [ -0.15766469353399,  0.00000000000000 ]
    - # atom 11
      - [  0.00729484151564,  0.00000000000000 ]
      - [  0.00020284813662,  0.00000000000000 ]
      - [ -0.35714621299379,  0.00000000000000 ]
    - # atom 12
      - [ -0.02087764169508,  0.00000000000000 ]
      - [  0.00029534076100,  0.00000000000000 ]
      - [ -0.12498318784344,  0.00000000000000 ]
  - # 11
    frequency:     2.3431392949
    eigenvector:
    - # atom 1
      - [ -0.00030931955960,  0.00000000000000 ]
      - [  0.73524948195958,  0.00000000000000 ]
      - [  0.00227847741431,  0.00000000000000 ]
    - # atom 2
      - [  0.00049138084017,  0.00000000000000 ]
      - [  0.05842163813506,  0.00000000000000 ]
      - [  0.00031697308859,  0.00000000000000 ]
    - # atom 3
      - [ -0.00056740307300,  0.00000000000000 ]
      - [  0.30705279070474,  0.00000000000000 ]
      - [  0.00062910721279,  0.00000000000000 ]
    - # atom 4
      - [  0.10145146683138,  0.00000000000000 ]
      - [  0.24113922436925,  0.00000000000000 ]
      - [  0.08304883235480,  0.00000000000000 ]
    - # atom 5
      - [ -0.10133951816526,  0.00000000000000 ]
      - [  0.24114382979172,  0.00000000000000 ]
      - [ -0.08127758505308,  0.00000000000000 ]
    - # atom 6
      - [  0.08440042983076,  0.00000000000000 ]
      - [ -0.01837695376326,  0.00000000000000 ]
      - [  0.04860680613337,  0.00000000000000 ]
    - # atom 7
      - [ -0.08436902414939,  0.00000000000000 ]
      - [ -0.01838279681463,  0.00000000000000 ]
      - [ -0.04885074744990,  0.00000000000000 ]
    - # atom 8
      - [  0.00056129814486,  0.00000000000000 ]
      - [ -0.04161150895944,  0.00000000000000 ]
      - [  0.00009740715572,  0.00000000000000 ]
    - # atom 9
      - [ -0.00019718711051,  0.00000000000000 ]
      - [  0.11203083759374,  0.00000000000000 ]
      - [  0.00074115748885,  0.00000000000000 ]
    - # atom 10
      - [  0.00020669377525,  0.00000000000000 ]
      - [ -0.40256227429182,  0.00000000000000 ]
      - [ -0.00118191408876,  0.00000000000000 ]
    - # atom 11
      - [ -0.00025449599870,  0.00000000000000 ]
      - [ -0.10912676193448,  0.00000000000000 ]
      - [ -0.00112429313670,  0.00000000000000 ]
    - # atom 12
      - [  0.00029564728346,  0.00000000000000 ]
      - [ -0.05853333677869,  0.00000000000000 ]
      - [ -0.00014491439880,  0.00000000000000 ]
  - # 12
    frequency:     2.4036195312
    eigenvector:
    - # atom 1
      - [ -0.03199145374998,  0.00000000000000 ]
      - [  0.00051688472731,  0.00000000000000 ]
      - [  0.08735609535589,  0.00000000000000 ]
    - # atom 2
      - [ -0.01419452765882,  0.00000000000000 ]
      - [  0.00005521769649,  0.00000000000000 ]
      - [  0.04493961871977,  0.00000000000000 ]
    - # atom 3
      - [ -0.02093702227173,  0.00000000000000 ]
      - [  0.00021057897870,  0.00000000000000 ]
      - [  0.02453966511421,  0.00000000000000 ]
    - # atom 4
      - [ -0.00566338846752,  0.00000000000000 ]
      - [  0.00010728179442,  0.00000000000000 ]
      - [  0.03118447636342,  0.00000000000000 ]
    - # atom 5
      - [ -0.00580339585214,  0.00000000000000 ]
      - [  0.00023463011340,  0.00000000000000 ]
      - [  0.03107767896974,  0.00000000000000 ]
    - # atom 6
      - [ -0.00535345899864,  0.00000000000000 ]
      - [  0.00002119842586,  0.00000000000000 ]
      - [  0.00960034118289,  0.00000000000000 ]
    - # atom 7
      - [ -0.00546998808471,  0.00000000000000 ]
      - [ -0.00003894074281,  0.00000000000000 ]
      - [  0.00953579800470,  0.00000000000000 ]
    - # atom 8
      - [  0.00595904568295,  0.00000000000000 ]
      - [ -0.00002313734599,  0.00000000000000 ]
      - [  0.01224534749089,  0.00000000000000 ]
    - # atom 9
      - [  0.35131298975038,  0.00000000000000 ]
      - [  0.00008185839997,  0.00000000000000 ]
      - [ -0.31133961374291,  0.00000000000000 ]
    - # atom 10
      - [  0.09183694720083,  0.00000000000000 ]
      - [ -0.00028309402998,  0.00000000000000 ]
      - [  0.50268497083043,  0.00000000000000 ]
    - # atom 11
      - [  0.06606904274100,  0.00000000000000 ]
      - [ -0.00008727072124,  0.00000000000000 ]
      - [ -0.08845721288806,  0.00000000000000 ]
    - # atom 12
      - [ -0.70109431060685,  0.00000000000000 ]
      - [ -0.00004379087902,  0.00000000000000 ]
      - [  0.02120805161318,  0.00000000000000 ]
  - # 13
    frequency:     2.6186069799
    eigenvector:
    - # atom 1
      - [ -0.22985660759029,  0.00000000000000 ]
      - [  0.00026904735602,  0.00000000000000 ]
      - [  0.07341389745117,  0.00000000000000 ]
    - # atom 2
      - [ -0.27003614727400,  0.00000000000000 ]
      - [  0.00009264041625,  0.00000000000000 ]
      - [  0.13748572828223,  0.00000000000000 ]
    - # atom 3
      - [ -0.05506142693808,  0.00000000000000 ]
      - [  0.00016293821192,  0.00000000000000 ]
      - [  0.02207467969156,  0.00000000000000 ]
    - # atom 4
      - [ -0.07060753792132,  0.00000000000000 ]
      - [  0.00011677832746,  0.00000000000000 ]
      - [  0.01500409900927,  0.00000000000000 ]
    - # atom 5
      - [ -0.07062477243122,  0.00000000000000 ]
      - [ -0.00000162212158,  0.00000000000000 ]
      - [  0.01486386262922,  0.00000000000000 ]
    - # atom 6
      - [ -0.06738732139416,  0.00000000000000 ]
      - [ -0.00041374436572,  0.00000000000000 ]
      - [  0.04619894143471,  0.00000000000000 ]
    - # atom 7
      - [ -0.06740991990257,  0.00000000000000 ]
      - [  0.00048649255038,  0.00000000000000 ]
      - [  0.04611332627063,  0.00000000000000 ]
    - # atom 8
      - [ -0.08498849788832,  0.00000000000000 ]
      - [ -0.00002872337421,  0.00000000000000 ]
      - [  0.03645447702635,  0.00000000000000 ]
    - # atom 9
      - [ -0.22041278835176,  0.00000000000000 ]
      - [  0.00010419423108,  0.00000000000000 ]
      - [ -0.30571573896747,  0.00000000000000 ]
    - # atom 10
      - [  0.07932798168092,  0.00000000000000 ]
      - [ -0.00020917658059,  0.00000000000000 ]
      - [  0.60548878400615,  0.00000000000000 ]
    - # atom 11
      - [  0.00053686921907,  0.00000000000000 ]
      - [ -0.00018588125261,  0.00000000000000 ]
      - [ -0.12587523662649,  0.00000000000000 ]
    - # atom 12
      - [  0.52396854571167,  0.00000000000000 ]
      - [ -0.00001174001927,  0.00000000000000 ]
      - [ -0.09368122361591,  0.00000000000000 ]
  - # 14
    frequency:     2.9112959701
    eigenvector:
    - # atom 1
      - [ -0.00010694366090,  0.00000000000000 ]
      - [ -0.09912643679091,  0.00000000000000 ]
      - [ -0.00005785245804,  0.00000000000000 ]
    - # atom 2
      - [ -0.00013309367728,  0.00000000000000 ]
      - [  0.01988384715002,  0.00000000000000 ]
      - [  0.00000198624992,  0.00000000000000 ]
    - # atom 3
      - [ -0.00001508065908,  0.00000000000000 ]
      - [  0.00878835431040,  0.00000000000000 ]
      - [ -0.00001618468341,  0.00000000000000 ]
    - # atom 4
      - [ -0.03492587157795,  0.00000000000000 ]
      - [ -0.05997207857495,  0.00000000000000 ]
      - [  0.02874463446036,  0.00000000000000 ]
    - # atom 5
      - [  0.03485672783477,  0.00000000000000 ]
      - [ -0.05997517395054,  0.00000000000000 ]
      - [ -0.02879389384921,  0.00000000000000 ]
    - # atom 6
      - [ -0.02904321503514,  0.00000000000000 ]
      - [  0.03459391864638,  0.00000000000000 ]
      - [  0.02995336936309,  0.00000000000000 ]
    - # atom 7
      - [  0.02897974819171,  0.00000000000000 ]
      - [  0.03459567143014,  0.00000000000000 ]
      - [ -0.02994076076063,  0.00000000000000 ]
    - # atom 8
      - [ -0.00004885225300,  0.00000000000000 ]
      - [ -0.03486070486563,  0.00000000000000 ]
      - [  0.00000001561848,  0.00000000000000 ]
    - # atom 9
      - [  0.00005405695237,  0.00000000000000 ]
      - [  0.46570269334561,  0.00000000000000 ]
      - [  0.00008111848300,  0.00000000000000 ]
    - # atom 10
      - [  0.00013094462002,  0.00000000000000 ]
      - [  0.10253709516044,  0.00000000000000 ]
      - [ -0.00021113273002,  0.00000000000000 ]
    - # atom 11
      - [  0.00004406407717,  0.00000000000000 ]
      - [ -0.86120772329356,  0.00000000000000 ]
      - [  0.00006633555885,  0.00000000000000 ]
    - # atom 12
      - [ -0.00013258605074,  0.00000000000000 ]
      - [  0.04753882562394,  0.00000000000000 ]
      - [  0.00003603136130,  0.00000000000000 ]
  - # 15
    frequency:     3.2189399722
    eigenvector:
    - # atom 1
      - [  0.43130530970515,  0.00000000000000 ]
      - [ -0.00017294051966,  0.00000000000000 ]
      - [  0.11102840057529,  0.00000000000000 ]
    - # atom 2
      - [  0.55785452661696,  0.00000000000000 ]
      - [ -0.00021078060169,  0.00000000000000 ]
      - [ -0.13327156110507,  0.00000000000000 ]
    - # atom 3
      - [  0.06941939726318,  0.00000000000000 ]
      - [ -0.00019839855089,  0.00000000000000 ]
      - [  0.02835184217070,  0.00000000000000 ]
    - # atom 4
      - [  0.14255523086806,  0.00000000000000 ]
      - [ -0.00026900955476,  0.00000000000000 ]
      - [  0.06006671949016,  0.00000000000000 ]
    - # atom 5
      - [  0.14245643324849,  0.00000000000000 ]
      - [  0.00031414888292,  0.00000000000000 ]
      - [  0.06030347252823,  0.00000000000000 ]
    - # atom 6
      - [  0.13257614350438,  0.00000000000000 ]
      - [  0.00330527737947,  0.00000000000000 ]
      - [ -0.05868287710030,  0.00000000000000 ]
    - # atom 7
      - [  0.13252111459535,  0.00000000000000 ]
      - [ -0.00350940202974,  0.00000000000000 ]
      - [ -0.05855968404410,  0.00000000000000 ]
    - # atom 8
      - [  0.19987343838811,  0.00000000000000 ]
      - [  0.00002079966880,  0.00000000000000 ]
      - [ -0.03387480713961,  0.00000000000000 ]
    - # atom 9
      - [ -0.08073019658953,  0.00000000000000 ]
      - [  0.00016339610044,  0.00000000000000 ]
      - [ -0.09644214785661,  0.00000000000000 ]
    - # atom 10
      - [ -0.38468559465748,  0.00000000000000 ]